                         Program Version 5.0.3 -  RELEASE  -
|  1> ! b3lyp d3bj def2-svp Freq Opt tightscf cpcm(CH2Cl2)
|  2> %pal
|  3>     nprocs 1
|  4> end
|  5> %MaxCore 1000
|  6> %freq
|  7>     Temp    298.15
|  8> end
|  9>
| 10> *xyz 0 1
| 11> C     0.934866  -0.645835  -0.118781
| 12> C    -0.312224   0.126756   0.008735
| 13> N     2.050909   0.031931  -0.221079
| 14> O    -1.377214  -0.695565  -0.080738
| 15> O    -0.366061   1.325005   0.170151
| 16> C    -2.653190  -0.072377   0.149355
| 17> N     3.044065   0.622028  -0.426136
| 18> H     0.900382  -1.718495  -0.224598
| 19> H    -3.386502  -0.863239   0.043969
| 20> H    -2.693616   0.355296   1.147760
| 21> H    -2.831051   0.712699  -0.581033
| 22> *
| 23>
| 24>
| 25>
| 26>
| 27>                          ****END OF INPUT****
 Total Charge           Charge          ....    0
 Multiplicity           Mult            ....    1
 Number of Electrons    NEL             ....   52
Dispersion correction           -0.013605850
FINAL SINGLE POINT ENERGY      -376.168616497826
Dispersion correction            ... done
Dispersion correction           -0.013631346
FINAL SINGLE POINT ENERGY      -376.173824692996
Dispersion correction            ... done
Dispersion correction           -0.013629794
FINAL SINGLE POINT ENERGY      -376.174488719869
Dispersion correction            ... done
FINAL SINGLE POINT ENERGY      -376.174634296989
FINAL SINGLE POINT ENERGY      -376.173698892859
FINAL SINGLE POINT ENERGY      -376.174766351085
FINAL SINGLE POINT ENERGY      -376.174526754987
FINAL SINGLE POINT ENERGY      -376.174832474990
FINAL SINGLE POINT ENERGY      -376.174836181214
FINAL SINGLE POINT ENERGY      -376.174840541983
FINAL SINGLE POINT ENERGY      -376.174841325562
FINAL SINGLE POINT ENERGY      -376.174842711801
FINAL SINGLE POINT ENERGY      -376.174843991573
FINAL SINGLE POINT ENERGY      -376.174846448170
FINAL SINGLE POINT ENERGY      -376.174848494543
Dispersion correction           -0.013630625
FINAL SINGLE POINT ENERGY      -376.174852051161
Dispersion correction            ... done
Dispersion correction           -0.013631135
FINAL SINGLE POINT ENERGY      -376.174853540953
Dispersion correction            ... done
                    ***********************HURRAY********************

CARTESIAN COORDINATES (ANGSTROEM)
---------------------------------
  C      0.917852   -0.637477   -0.212483
  C     -0.307682    0.128522   -0.016164
  N      2.049677    0.016640   -0.238808
  O     -1.373434   -0.692560   -0.012876
  O     -0.375873    1.334518    0.125684
  C     -2.649232   -0.071566    0.170809
  N      3.020133    0.598093   -0.258681
  H      0.960640   -1.719095   -0.339346
  H     -3.389104   -0.880125    0.128967
  H     -2.698332    0.437846    1.145350
  H     -2.844281    0.663409   -0.624848

 Multiplicity           Mult            ....    1
 Number of Electrons    NEL             ....   52
 Basis Dimension        Dim             ....  118

ORBITAL ENERGIES
----------------

  NO   OCC          E(Eh)            E(eV)
   0   2.0000     -19.175618      -521.7951
   1   2.0000     -19.117218      -520.2060
   2   2.0000     -14.490994      -394.3200
   3   2.0000     -14.426747      -392.5717
   4   2.0000     -10.320899      -280.8459
   5   2.0000     -10.237131      -278.5665
   6   2.0000     -10.237076      -278.5650
   7   2.0000      -1.126001       -30.6400
   8   2.0000      -1.093002       -29.7421
   9   2.0000      -1.003339       -27.3022
  10   2.0000      -0.866015       -23.5655
  11   2.0000      -0.733197       -19.9513
  12   2.0000      -0.616623       -16.7792
  13   2.0000      -0.549272       -14.9465
  14   2.0000      -0.537052       -14.6139
  15   2.0000      -0.509247       -13.8573
  16   2.0000      -0.477246       -12.9865
  17   2.0000      -0.471845       -12.8396
  18   2.0000      -0.465088       -12.6557
  19   2.0000      -0.446597       -12.1525
  20   2.0000      -0.412755       -11.2316
  21   2.0000      -0.396648       -10.7933
  22   2.0000      -0.356911        -9.7120
  23   2.0000      -0.304571        -8.2878
  24   2.0000      -0.285132        -7.7588
  25   2.0000      -0.244492        -6.6530
  26   0.0000      -0.066472        -1.8088
  27   0.0000      -0.034189        -0.9303
  28   0.0000       0.079802         2.1715
  29   0.0000       0.084208         2.2914
  30   0.0000       0.111455         3.0329

MULLIKEN ATOMIC CHARGES
-----------------------
   0 C :   -0.146407
   1 C :    0.233690
   2 N :    0.219674
   3 O :   -0.327648
   4 O :   -0.293165
   5 C :    0.183055
   6 N :   -0.072024
   7 H :    0.085538
   8 H :    0.044563
   9 H :    0.036487
  10 H :    0.036239
Sum of atomic charges:   -0.0000000

LOEWDIN ATOMIC CHARGES
----------------------
   0 C :   -0.175896
   1 C :    0.069387
   2 N :    0.248509
   3 O :   -0.106990
   4 O :   -0.245014
   5 C :    0.088247
   6 N :   -0.020112
   7 H :    0.061754
   8 H :    0.031316
   9 H :    0.024500
  10 H :    0.024298

  Mayer bond orders larger than 0.100000
B(  0-C ,  1-C ) :   1.0544 B(  0-C ,  2-N ) :   1.3316 B(  0-C ,  6-N ) :   0.2785
B(  0-C ,  7-H ) :   0.9443 B(  1-C ,  3-O ) :   1.1595 B(  1-C ,  4-O ) :   2.0343
B(  2-N ,  6-N ) :   2.1949 B(  3-O ,  5-C ) :   0.9122 B(  5-C ,  8-H ) :   0.9794
B(  5-C ,  9-H ) :   0.9746 B(  5-C , 10-H ) :   0.9741

Dispersion correction           -0.013631444
FINAL SINGLE POINT ENERGY      -376.174854609788

DIPOLE MOMENT
-------------
                                X             Y             Z
Electronic contribution:      7.48552       0.64866      -0.59411
Nuclear contribution   :     -7.87421      -1.78662       0.50008
                        -----------------------------------------
Total Dipole Moment    :     -0.38869      -1.13797      -0.09403
                        -----------------------------------------
Magnitude (a.u.)       :      1.20619
Magnitude (Debye)      :      3.06589

Dispersion correction in the Hessian             ... done   (      4.2 sec)

VIBRATIONAL FREQUENCIES
-----------------------

Scaling factor for frequencies =  1.000000000  (already applied!)

   0:         0.00 cm**-1
   1:         0.00 cm**-1
   2:         0.00 cm**-1
   3:         0.00 cm**-1
   4:         0.00 cm**-1
   5:         0.00 cm**-1
   6:        92.38 cm**-1
   7:       130.25 cm**-1
   8:       134.64 cm**-1
   9:       180.00 cm**-1
  10:       287.28 cm**-1
  11:       399.38 cm**-1
  12:       495.61 cm**-1
  13:       511.31 cm**-1
  14:       570.47 cm**-1
  15:       747.39 cm**-1
  16:       750.68 cm**-1
  17:       964.00 cm**-1
  18:      1040.02 cm**-1
  19:      1166.46 cm**-1
  20:      1167.99 cm**-1
  21:      1198.44 cm**-1
  22:      1241.44 cm**-1
  23:      1413.23 cm**-1
  24:      1445.27 cm**-1
  25:      1452.81 cm**-1
  26:      1472.30 cm**-1
  27:      1768.60 cm**-1
  28:      2264.70 cm**-1
  29:      3042.09 cm**-1
  30:      3130.25 cm**-1
  31:      3170.98 cm**-1
  32:      3236.19 cm**-1

IR SPECTRUM
-----------

 Mode   freq       eps      Int      T**2         TX        TY        TZ
       cm**-1   L/(mol*cm) km/mol    a.u.
----------------------------------------------------------------------------
  6:     92.38   0.000424    2.14  0.001432  (-0.003444  0.004140 -0.037456)
  7:    130.25   0.000463    2.34  0.001110  ( 0.001679 -0.003920  0.033042)
  8:    134.64   0.000004    0.02  0.000009  (-0.000748  0.002829  0.000303)
  9:    180.00   0.001836    9.28  0.003183  ( 0.005640 -0.005941  0.055824)
 10:    287.28   0.005133   25.94  0.005576  (-0.061633 -0.042155  0.000780)
 11:    399.38   0.001646    8.32  0.001286  ( 0.034372 -0.009393 -0.004068)
 12:    495.61   0.000120    0.61  0.000075  (-0.003705  0.007803  0.000919)
 13:    511.31   0.010652   53.83  0.006501  (-0.007271  0.008770 -0.079822)
 14:    570.47   0.000246    1.24  0.000134  (-0.000873  0.001286 -0.011490)
 15:    747.39   0.003196   16.15  0.001334  ( 0.011887 -0.033622 -0.007910)
 16:    750.68   0.010508   53.10  0.004368  ( 0.006302 -0.008972  0.065178)
 17:    964.00   0.001159    5.85  0.000375  ( 0.003339  0.018983  0.001878)
 18:   1040.02   0.005238   26.47  0.001572  (-0.034652  0.018526  0.005250)
 19:   1166.46   0.001807    9.13  0.000483  ( 0.021144  0.000933  0.005948)
 20:   1167.99   0.022037  111.37  0.005888  (-0.076056 -0.006476  0.007835)
 21:   1198.44   0.000402    2.03  0.000105  (-0.005168 -0.008827 -0.000374)
 22:   1241.44   0.142964  722.48  0.035937  (-0.187602 -0.023090  0.014481)
 23:   1413.23   0.097057  490.49  0.021432  ( 0.143676  0.026247 -0.010005)
 24:   1445.27   0.002649   13.38  0.000572  (-0.008561  0.001380 -0.022286)
 25:   1452.81   0.021639  109.36  0.004648  (-0.066345 -0.014254  0.006575)
 26:   1472.30   0.027005  136.47  0.005724  (-0.074970  0.007199  0.007173)
 27:   1768.60   0.081227  410.49  0.014332  ( 0.045438 -0.109547 -0.016346)
 28:   2264.70   0.170091  859.57  0.023438  ( 0.144236  0.050824 -0.007104)
 29:   3042.09   0.007569   38.25  0.000776  ( 0.026673 -0.007206 -0.003625)
 30:   3130.25   0.004597   23.23  0.000458  (-0.002039  0.002355 -0.021180)
 31:   3170.98   0.002572   13.00  0.000253  (-0.008849 -0.013200 -0.000729)
 32:   3236.19   0.006584   33.27  0.000635  ( 0.005333  0.024510  0.002388)

--------------------------
THERMOCHEMISTRY AT 298.15K
--------------------------

Temperature         ... 298.15 K
Pressure            ... 1.00 atm
Total Mass          ... 100.08 AMU

Throughout the following assumptions are being made:
  (1) The electronic state is orbitally nondegenerate
  (2) There are no thermally accessible electronically excited states
  (3) Hindered rotations indicated by low frequency modes are not
      treated as such but are treated as vibrations and this may
      cause some error
  (4) All equations used are the standard statistical mechanics
      equations for an ideal gas
  (5) All vibrations are strictly harmonic

freq.      92.38  E(vib)   ...       0.47
freq.     130.25  E(vib)   ...       0.43
freq.     134.64  E(vib)   ...       0.42
freq.     180.00  E(vib)   ...       0.37
freq.     287.28  E(vib)   ...       0.27
freq.     399.38  E(vib)   ...       0.19
freq.     495.61  E(vib)   ...       0.14
freq.     511.31  E(vib)   ...       0.14
freq.     570.47  E(vib)   ...       0.11
freq.     747.39  E(vib)   ...       0.06
freq.     750.68  E(vib)   ...       0.06
freq.     964.00  E(vib)   ...       0.03
freq.    1040.02  E(vib)   ...       0.02
freq.    1166.46  E(vib)   ...       0.01
freq.    1167.99  E(vib)   ...       0.01
freq.    1198.44  E(vib)   ...       0.01
freq.    1241.44  E(vib)   ...       0.01
freq.    1413.23  E(vib)   ...       0.00
freq.    1445.27  E(vib)   ...       0.00
freq.    1452.81  E(vib)   ...       0.00
freq.    1472.30  E(vib)   ...       0.00
freq.    1768.60  E(vib)   ...       0.00
freq.    2264.70  E(vib)   ...       0.00
freq.    3042.09  E(vib)   ...       0.00
freq.    3130.25  E(vib)   ...       0.00
freq.    3170.98  E(vib)   ...       0.00
freq.    3236.19  E(vib)   ...       0.00

------------
INNER ENERGY
------------

The inner energy is: U= E(el) + E(ZPE) + E(vib) + E(rot) + E(trans)
    E(el)   - is the total energy from the electronic structure calculation
              = E(kin-el) + E(nuc-el) + E(el-el) + E(nuc-nuc)
    E(ZPE)  - the the zero temperature vibrational energy from the frequency calculation
    E(vib)  - the the finite temperature correction to E(ZPE) due to population
              of excited vibrational states
    E(rot)  - is the rotational thermal energy
    E(trans)- is the translational thermal energy

Summary of contributions to the inner energy U:
Electronic energy                ...   -376.17485461 Eh
Zero point energy                ...      0.07625974 Eh      47.85 kcal/mol
Thermal vibrational correction   ...      0.00441600 Eh       2.77 kcal/mol
Thermal rotational correction    ...      0.00141627 Eh       0.89 kcal/mol
Thermal translational correction ...      0.00141627 Eh       0.89 kcal/mol
-----------------------------------------------------------------------
Total thermal energy                   -376.09134632 Eh

Summary of corrections to the electronic energy:
(perhaps to be used in another calculation)
Total thermal correction                  0.00724855 Eh       4.55 kcal/mol
Non-thermal (ZPE) correction              0.07625974 Eh      47.85 kcal/mol
-----------------------------------------------------------------------
Total correction                          0.08350829 Eh      52.40 kcal/mol

--------
ENTHALPY
--------

The enthalpy is H = U + kB*T
                kB is Boltzmann's constant
Total free energy                 ...   -376.09134632 Eh
Thermal Enthalpy correction       ...      0.00094421 Eh       0.59 kcal/mol
-----------------------------------------------------------------------
Total Enthalpy                    ...   -376.09040211 Eh

Note: Only C1 symmetry has been detected, increase convergence thresholds
      if your molecule has a higher symmetry. Symmetry factor of 1.0 is
      used for the rotational entropy correction.

Note: Rotational entropy computed according to Herzberg
Infrared and Raman Spectra, Chapter V,1, Van Nostrand Reinhold, 1945
Point Group:  C1, Symmetry Number:   1
Rotational constants in cm-1:     0.338507     0.048527     0.042791

Vibrational entropy computed according to the QRRHO of S. Grimme
Chem.Eur.J. 2012 18 9955

-------
ENTROPY
-------

The entropy contributions are T*S = T*(S(el)+S(vib)+S(rot)+S(trans))
     S(el)   - electronic entropy
     S(vib)  - vibrational entropy
     S(rot)  - rotational entropy
     S(trans)- translational entropy
The entropies will be listed as multiplied by the temperature to get
units of energy

Electronic entropy                ...      0.00000000 Eh      0.00 kcal/mol
Vibrational entropy               ...      0.00778958 Eh      4.89 kcal/mol
Rotational entropy                ...      0.01293831 Eh      8.12 kcal/mol
Translational entropy             ...      0.01887233 Eh     11.84 kcal/mol
-----------------------------------------------------------------------
Final entropy term                ...      0.03960022 Eh     24.85 kcal/mol

In case the symmetry of your molecule has not been determined correctly
or in case you have a reason to use a different symmetry number we print
out the resulting rotational entropy values for sn=1,12 :
 --------------------------------------------------------
|  sn= 1 | S(rot)=       0.01293831 Eh      8.12 kcal/mol|
|  sn= 2 | S(rot)=       0.01228385 Eh      7.71 kcal/mol|
|  sn= 3 | S(rot)=       0.01190102 Eh      7.47 kcal/mol|
|  sn= 4 | S(rot)=       0.01162940 Eh      7.30 kcal/mol|
|  sn= 5 | S(rot)=       0.01141871 Eh      7.17 kcal/mol|
|  sn= 6 | S(rot)=       0.01124656 Eh      7.06 kcal/mol|
|  sn= 7 | S(rot)=       0.01110102 Eh      6.97 kcal/mol|
|  sn= 8 | S(rot)=       0.01097494 Eh      6.89 kcal/mol|
|  sn= 9 | S(rot)=       0.01086373 Eh      6.82 kcal/mol|
|  sn=10 | S(rot)=       0.01076425 Eh      6.75 kcal/mol|
|  sn=11 | S(rot)=       0.01067426 Eh      6.70 kcal/mol|
|  sn=12 | S(rot)=       0.01059211 Eh      6.65 kcal/mol|
 --------------------------------------------------------

-------------------
GIBBS FREE ENERGY
-------------------

The Gibbs free energy is G = H - T*S

Total enthalpy                    ...   -376.09040211 Eh
Total entropy correction          ...     -0.03960022 Eh    -24.85 kcal/mol
-----------------------------------------------------------------------
Final Gibbs free energy         ...   -376.13000233 Eh

For completeness - the Gibbs free energy minus the electronic energy
G-E(el)                           ...      0.04485228 Eh     28.15 kcal/mol

                             ****ORCA TERMINATED NORMALLY****
TOTAL RUN TIME: 0 days 0 hours 18 minutes 30 seconds 927 msec
