                         Program Version 5.0.3 -  RELEASE  -
|  1> ! b3lyp d3bj def2-svp Freq Opt tightscf cpcm(CH2Cl2)
|  2> %pal
|  3>     nprocs 1
|  4> end
|  5> %MaxCore 1000
|  6> %freq
|  7>     Temp    298.15
|  8> end
|  9>
| 10> *xyz 0 1
| 11> C    -0.242400  -0.772000   0.003000
| 12> H    -1.238582  -0.354812   0.002214
| 13> C     0.864100   0.070300   0.000700
| 14> N    -0.084006  -2.011903   0.010975
| 15> N     0.058410  -3.126740   0.018219
| 16> C     2.254200  -0.511800  -0.002200
| 17> O     0.710000   1.276700   0.001000
| 18> H     2.587100  -0.652200  -1.030600
| 19> H     2.934100   0.168800   0.510200
| 20> H     2.246600  -1.473000   0.511600
| 21> *
| 22>
| 23>
| 24>
| 25>
| 26>
| 27>
| 28>
| 29>                          ****END OF INPUT****
 Total Charge           Charge          ....    0
 Multiplicity           Mult            ....    1
 Number of Electrons    NEL             ....   44
Dispersion correction           -0.013352802
FINAL SINGLE POINT ENERGY      -301.021636585135
Dispersion correction            ... done
Dispersion correction           -0.013020025
FINAL SINGLE POINT ENERGY      -301.030925636481
Dispersion correction            ... done
Dispersion correction           -0.012961905
FINAL SINGLE POINT ENERGY      -301.031604321834
Dispersion correction            ... done
FINAL SINGLE POINT ENERGY      -301.031735211494
FINAL SINGLE POINT ENERGY      -301.031773954411
FINAL SINGLE POINT ENERGY      -301.031800579705
FINAL SINGLE POINT ENERGY      -301.031841674884
FINAL SINGLE POINT ENERGY      -301.031881899196
FINAL SINGLE POINT ENERGY      -301.031947031063
FINAL SINGLE POINT ENERGY      -301.032009519462
FINAL SINGLE POINT ENERGY      -301.032062254277
FINAL SINGLE POINT ENERGY      -301.032076877444
Dispersion correction           -0.013082962
FINAL SINGLE POINT ENERGY      -301.032081080699
Dispersion correction            ... done
Dispersion correction           -0.013079523
FINAL SINGLE POINT ENERGY      -301.032082226841
Dispersion correction            ... done
                    ***********************HURRAY********************

CARTESIAN COORDINATES (ANGSTROEM)
---------------------------------
  C     -0.266756   -0.760409   -0.016799
  H     -1.291107   -0.385075    0.009145
  C      0.891270    0.129057    0.084291
  N     -0.117944   -2.053663   -0.142278
  N      0.041335   -3.170717   -0.248746
  C      2.269574   -0.499997    0.040896
  O      0.723905    1.335673    0.202047
  H      2.406199   -1.086039   -0.882777
  H      3.025934    0.293786    0.088689
  H      2.407114   -1.189271    0.890640

 Multiplicity           Mult            ....    1
 Number of Electrons    NEL             ....   44
 Basis Dimension        Dim             ....  104

ORBITAL ENERGIES
----------------

  NO   OCC          E(Eh)            E(eV)
   0   2.0000     -19.114593      -520.1345
   1   2.0000     -14.490549      -394.3079
   2   2.0000     -14.425488      -392.5375
   3   2.0000     -10.279767      -279.7267
   4   2.0000     -10.232772      -278.4479
   5   2.0000     -10.187446      -277.2145
   6   2.0000      -1.124366       -30.5956
   7   2.0000      -1.022111       -27.8131
   8   2.0000      -0.866460       -23.5776
   9   2.0000      -0.732662       -19.9368
  10   2.0000      -0.619600       -16.8602
  11   2.0000      -0.543754       -14.7963
  12   2.0000      -0.506778       -13.7901
  13   2.0000      -0.488947       -13.3049
  14   2.0000      -0.467908       -12.7324
  15   2.0000      -0.434547       -11.8246
  16   2.0000      -0.432861       -11.7787
  17   2.0000      -0.416280       -11.3276
  18   2.0000      -0.387613       -10.5475
  19   2.0000      -0.361407        -9.8344
  20   2.0000      -0.256893        -6.9904
  21   2.0000      -0.242953        -6.6111
  22   0.0000      -0.066886        -1.8201
  23   0.0000      -0.043237        -1.1765
  24   0.0000       0.058849         1.6014
  25   0.0000       0.082297         2.2394
  26   0.0000       0.112649         3.0653

MULLIKEN ATOMIC CHARGES
-----------------------
   0 C :   -0.107245
   1 H :    0.070860
   2 C :    0.027666
   3 N :    0.208551
   4 N :   -0.080978
   5 C :    0.029758
   6 O :   -0.286391
   7 H :    0.051892
   8 H :    0.031393
   9 H :    0.054494
Sum of atomic charges:    0.0000000

LOEWDIN ATOMIC CHARGES
----------------------
   0 C :   -0.164000
   1 H :    0.060361
   2 C :    0.063070
   3 N :    0.236988
   4 N :   -0.030933
   5 C :   -0.078032
   6 O :   -0.225379
   7 H :    0.048109
   8 H :    0.039766
   9 H :    0.050050

  Mayer bond orders larger than 0.100000
B(  0-C ,  1-H ) :   0.9422 B(  0-C ,  2-C ) :   1.0734 B(  0-C ,  3-N ) :   1.3186
B(  0-C ,  4-N ) :   0.2741 B(  2-C ,  5-C ) :   1.0544 B(  2-C ,  6-O ) :   2.0189
B(  3-N ,  4-N ) :   2.1621 B(  5-C ,  7-H ) :   0.9464 B(  5-C ,  8-H ) :   0.9478
B(  5-C ,  9-H ) :   0.9457

Dispersion correction           -0.013078743
FINAL SINGLE POINT ENERGY      -301.032082470729

DIPOLE MOMENT
-------------
                                X             Y             Z
Electronic contribution:     -3.86423      -1.96348      -0.24597
Nuclear contribution   :      3.82253       0.81688       0.13757
                        -----------------------------------------
Total Dipole Moment    :     -0.04171      -1.14660      -0.10840
                        -----------------------------------------
Magnitude (a.u.)       :      1.15246
Magnitude (Debye)      :      2.92933

Dispersion correction in the Hessian             ... done   (      2.4 sec)

VIBRATIONAL FREQUENCIES
-----------------------

Scaling factor for frequencies =  1.000000000  (already applied!)

   0:         0.00 cm**-1
   1:         0.00 cm**-1
   2:         0.00 cm**-1
   3:         0.00 cm**-1
   4:         0.00 cm**-1
   5:         0.00 cm**-1
   6:        85.62 cm**-1
   7:       136.99 cm**-1
   8:       164.71 cm**-1
   9:       387.99 cm**-1
  10:       485.37 cm**-1
  11:       503.49 cm**-1
  12:       575.38 cm**-1
  13:       599.54 cm**-1
  14:       632.63 cm**-1
  15:       820.85 cm**-1
  16:       999.60 cm**-1
  17:      1021.30 cm**-1
  18:      1171.59 cm**-1
  19:      1245.46 cm**-1
  20:      1359.89 cm**-1
  21:      1386.90 cm**-1
  22:      1420.92 cm**-1
  23:      1435.12 cm**-1
  24:      1737.96 cm**-1
  25:      2247.37 cm**-1
  26:      3034.32 cm**-1
  27:      3111.72 cm**-1
  28:      3161.75 cm**-1
  29:      3221.33 cm**-1

IR SPECTRUM
-----------

 Mode   freq       eps      Int      T**2         TX        TY        TZ
       cm**-1   L/(mol*cm) km/mol    a.u.
----------------------------------------------------------------------------
  6:     85.62   0.000503    2.54  0.001835  ( 0.004805 -0.002442  0.042491)
  7:    136.99   0.001193    6.03  0.002717  (-0.002577 -0.005324  0.051784)
  8:    164.71   0.001527    7.72  0.002893  ( 0.053072  0.008674  0.000815)
  9:    387.99   0.001469    7.42  0.001182  ( 0.000741  0.034298  0.002163)
 10:    485.37   0.005086   25.70  0.003270  ( 0.001203  0.005385 -0.056917)
 11:    503.49   0.004632   23.41  0.002871  ( 0.050899  0.016413  0.003256)
 12:    575.38   0.000724    3.66  0.000393  ( 0.000376 -0.001589  0.019747)
 13:    599.54   0.003420   17.28  0.001780  (-0.037883 -0.018414 -0.002387)
 14:    632.63   0.010294   52.02  0.005078  (-0.001602 -0.007814  0.070811)
 15:    820.85   0.000444    2.24  0.000169  (-0.012407  0.003756 -0.000843)
 16:    999.60   0.011002   55.60  0.003435  ( 0.025501  0.052264  0.007266)
 17:   1021.30   0.003204   16.19  0.000979  (-0.000823 -0.005827  0.030728)
 18:   1171.59   0.000495    2.50  0.000132  (-0.000039 -0.011429 -0.001076)
 19:   1245.46   0.038225  193.17  0.009578  ( 0.071367  0.066539  0.007542)
 20:   1359.89   0.016075   81.24  0.003689  ( 0.025836 -0.054828 -0.003910)
 21:   1386.90   0.064747  327.20  0.014569  (-0.063591 -0.101883 -0.012021)
 22:   1420.92   0.000974    4.92  0.000214  ( 0.000752  0.014312  0.002933)
 23:   1435.12   0.002633   13.31  0.000572  (-0.003518 -0.006134  0.022858)
 24:   1737.96   0.153366  775.05  0.027538  ( 0.003587  0.165119  0.016151)
 25:   2247.37   0.174069  879.67  0.024171  ( 0.011322  0.154300  0.015303)
 26:   3034.32   0.000103    0.52  0.000011  ( 0.002777 -0.001682 -0.000087)
 27:   3111.72   0.000577    2.91  0.000058  ( 0.000533  0.000399 -0.007576)
 28:   3161.75   0.001186    5.99  0.000117  ( 0.007187  0.008048  0.000776)
 29:   3221.33   0.004855   24.53  0.000470  (-0.019287  0.009886  0.000772)

--------------------------
THERMOCHEMISTRY AT 298.15K
--------------------------

Temperature         ... 298.15 K
Pressure            ... 1.00 atm
Total Mass          ... 84.08 AMU

Throughout the following assumptions are being made:
  (1) The electronic state is orbitally nondegenerate
  (2) There are no thermally accessible electronically excited states
  (3) Hindered rotations indicated by low frequency modes are not
      treated as such but are treated as vibrations and this may
      cause some error
  (4) All equations used are the standard statistical mechanics
      equations for an ideal gas
  (5) All vibrations are strictly harmonic

freq.      85.62  E(vib)   ...       0.48
freq.     136.99  E(vib)   ...       0.42
freq.     164.71  E(vib)   ...       0.39
freq.     387.99  E(vib)   ...       0.20
freq.     485.37  E(vib)   ...       0.15
freq.     503.49  E(vib)   ...       0.14
freq.     575.38  E(vib)   ...       0.11
freq.     599.54  E(vib)   ...       0.10
freq.     632.63  E(vib)   ...       0.09
freq.     820.85  E(vib)   ...       0.05
freq.     999.60  E(vib)   ...       0.02
freq.    1021.30  E(vib)   ...       0.02
freq.    1171.59  E(vib)   ...       0.01
freq.    1245.46  E(vib)   ...       0.01
freq.    1359.89  E(vib)   ...       0.01
freq.    1386.90  E(vib)   ...       0.00
freq.    1420.92  E(vib)   ...       0.00
freq.    1435.12  E(vib)   ...       0.00
freq.    1737.96  E(vib)   ...       0.00
freq.    2247.37  E(vib)   ...       0.00
freq.    3034.32  E(vib)   ...       0.00
freq.    3111.72  E(vib)   ...       0.00
freq.    3161.75  E(vib)   ...       0.00
freq.    3221.33  E(vib)   ...       0.00

------------
INNER ENERGY
------------

The inner energy is: U= E(el) + E(ZPE) + E(vib) + E(rot) + E(trans)
    E(el)   - is the total energy from the electronic structure calculation
              = E(kin-el) + E(nuc-el) + E(el-el) + E(nuc-nuc)
    E(ZPE)  - the the zero temperature vibrational energy from the frequency calculation
    E(vib)  - the the finite temperature correction to E(ZPE) due to population
              of excited vibrational states
    E(rot)  - is the rotational thermal energy
    E(trans)- is the translational thermal energy

Summary of contributions to the inner energy U:
Electronic energy                ...   -301.03208247 Eh
Zero point energy                ...      0.07050427 Eh      44.24 kcal/mol
Thermal vibrational correction   ...      0.00351012 Eh       2.20 kcal/mol
Thermal rotational correction    ...      0.00141627 Eh       0.89 kcal/mol
Thermal translational correction ...      0.00141627 Eh       0.89 kcal/mol
-----------------------------------------------------------------------
Total thermal energy                   -300.95523553 Eh

Summary of corrections to the electronic energy:
(perhaps to be used in another calculation)
Total thermal correction                  0.00634266 Eh       3.98 kcal/mol
Non-thermal (ZPE) correction              0.07050427 Eh      44.24 kcal/mol
-----------------------------------------------------------------------
Total correction                          0.07684694 Eh      48.22 kcal/mol

--------
ENTHALPY
--------

The enthalpy is H = U + kB*T
                kB is Boltzmann's constant
Total free energy                 ...   -300.95523553 Eh
Thermal Enthalpy correction       ...      0.00094421 Eh       0.59 kcal/mol
-----------------------------------------------------------------------
Total Enthalpy                    ...   -300.95429132 Eh

Note: Only C1 symmetry has been detected, increase convergence thresholds
      if your molecule has a higher symmetry. Symmetry factor of 1.0 is
      used for the rotational entropy correction.

Note: Rotational entropy computed according to Herzberg
Infrared and Raman Spectra, Chapter V,1, Van Nostrand Reinhold, 1945
Point Group:  C1, Symmetry Number:   1
Rotational constants in cm-1:     0.292459     0.081957     0.064800

Vibrational entropy computed according to the QRRHO of S. Grimme
Chem.Eur.J. 2012 18 9955

-------
ENTROPY
-------

The entropy contributions are T*S = T*(S(el)+S(vib)+S(rot)+S(trans))
     S(el)   - electronic entropy
     S(vib)  - vibrational entropy
     S(rot)  - rotational entropy
     S(trans)- translational entropy
The entropies will be listed as multiplied by the temperature to get
units of energy

Electronic entropy                ...      0.00000000 Eh      0.00 kcal/mol
Vibrational entropy               ...      0.00606120 Eh      3.80 kcal/mol
Rotational entropy                ...      0.01256403 Eh      7.88 kcal/mol
Translational entropy             ...      0.01862562 Eh     11.69 kcal/mol
-----------------------------------------------------------------------
Final entropy term                ...      0.03725085 Eh     23.38 kcal/mol

In case the symmetry of your molecule has not been determined correctly
or in case you have a reason to use a different symmetry number we print
out the resulting rotational entropy values for sn=1,12 :
 --------------------------------------------------------
|  sn= 1 | S(rot)=       0.01256403 Eh      7.88 kcal/mol|
|  sn= 2 | S(rot)=       0.01190957 Eh      7.47 kcal/mol|
|  sn= 3 | S(rot)=       0.01152674 Eh      7.23 kcal/mol|
|  sn= 4 | S(rot)=       0.01125512 Eh      7.06 kcal/mol|
|  sn= 5 | S(rot)=       0.01104443 Eh      6.93 kcal/mol|
|  sn= 6 | S(rot)=       0.01087228 Eh      6.82 kcal/mol|
|  sn= 7 | S(rot)=       0.01072674 Eh      6.73 kcal/mol|
|  sn= 8 | S(rot)=       0.01060066 Eh      6.65 kcal/mol|
|  sn= 9 | S(rot)=       0.01048945 Eh      6.58 kcal/mol|
|  sn=10 | S(rot)=       0.01038997 Eh      6.52 kcal/mol|
|  sn=11 | S(rot)=       0.01029998 Eh      6.46 kcal/mol|
|  sn=12 | S(rot)=       0.01021783 Eh      6.41 kcal/mol|
 --------------------------------------------------------

-------------------
GIBBS FREE ENERGY
-------------------

The Gibbs free energy is G = H - T*S

Total enthalpy                    ...   -300.95429132 Eh
Total entropy correction          ...     -0.03725085 Eh    -23.38 kcal/mol
-----------------------------------------------------------------------
Final Gibbs free energy         ...   -300.99154218 Eh

For completeness - the Gibbs free energy minus the electronic energy
G-E(el)                           ...      0.04054029 Eh     25.44 kcal/mol

                             ****ORCA TERMINATED NORMALLY****
TOTAL RUN TIME: 0 days 0 hours 7 minutes 30 seconds 687 msec
