                         Program Version 5.0.3 -  RELEASE  -
|  1> ! b3lyp d3bj def2-svp Freq Opt tightscf cpcm(CH2Cl2)
|  2> %pal
|  3>     nprocs 1
|  4> end
|  5> %MaxCore 1000
|  6> %freq
|  7>     Temp    298.15
|  8> end
|  9>
| 10> *xyz 0 1
| 11> C    -0.242400  -0.772000   0.003000
| 12> H    -0.105500  -1.843300   0.002800
| 13> C     0.864100   0.070300   0.000700
| 14> N    -1.395400  -0.289200   0.000300
| 15> N    -2.432100   0.144900  -0.002200
| 16> C     2.254200  -0.511800  -0.002200
| 17> O     0.710000   1.276700   0.001000
| 18> H     2.587100  -0.652200  -1.030600
| 19> H     2.934100   0.168800   0.510200
| 20> H     2.246600  -1.473000   0.511600
| 21> *
| 22>
| 23>
| 24>
| 25>
| 26>
| 27>
| 28>                          ****END OF INPUT****
 Total Charge           Charge          ....    0
 Multiplicity           Mult            ....    1
 Number of Electrons    NEL             ....   44
Dispersion correction           -0.012763285
FINAL SINGLE POINT ENERGY      -301.021343304748
Dispersion correction            ... done
Dispersion correction           -0.012563507
FINAL SINGLE POINT ENERGY      -301.030803863122
Dispersion correction            ... done
Dispersion correction           -0.012532134
FINAL SINGLE POINT ENERGY      -301.031968028067
Dispersion correction            ... done
FINAL SINGLE POINT ENERGY      -301.032237571611
FINAL SINGLE POINT ENERGY      -301.032291150955
FINAL SINGLE POINT ENERGY      -301.032326301507
FINAL SINGLE POINT ENERGY      -301.032340098700
FINAL SINGLE POINT ENERGY      -301.032347581451
FINAL SINGLE POINT ENERGY      -301.032354153380
FINAL SINGLE POINT ENERGY      -301.032361095790
FINAL SINGLE POINT ENERGY      -301.032368534915
FINAL SINGLE POINT ENERGY      -301.032376992846
FINAL SINGLE POINT ENERGY      -301.032385019636
FINAL SINGLE POINT ENERGY      -301.032393732631
FINAL SINGLE POINT ENERGY      -301.032402755141
FINAL SINGLE POINT ENERGY      -301.032413178041
Dispersion correction           -0.012589933
FINAL SINGLE POINT ENERGY      -301.032418192480
Dispersion correction            ... done
Dispersion correction           -0.012589686
FINAL SINGLE POINT ENERGY      -301.032420052298
Dispersion correction            ... done
                    ***********************HURRAY********************

CARTESIAN COORDINATES (ANGSTROEM)
---------------------------------
  C     -0.223919   -0.802361   -0.085382
  H     -0.127630   -1.876497   -0.246674
  C      0.889980    0.131995    0.086689
  N     -1.440542   -0.318577   -0.047757
  N     -2.464839    0.158549   -0.001248
  C      2.263138   -0.502781    0.022008
  O      0.721212    1.331910    0.264468
  H      2.424396   -0.952997   -0.971611
  H      3.028082    0.262187    0.209289
  H      2.350823   -1.312227    0.764819

 Multiplicity           Mult            ....    1
 Number of Electrons    NEL             ....   44
 Basis Dimension        Dim             ....  104

ORBITAL ENERGIES
----------------

  NO   OCC          E(Eh)            E(eV)
   0   2.0000     -19.112897      -520.0884
   1   2.0000     -14.488599      -394.2548
   2   2.0000     -14.425661      -392.5422
   3   2.0000     -10.277988      -279.6783
   4   2.0000     -10.230802      -278.3943
   5   2.0000     -10.185726      -277.1677
   6   2.0000      -1.124255       -30.5925
   7   2.0000      -1.021144       -27.7867
   8   2.0000      -0.859619       -23.3914
   9   2.0000      -0.739136       -20.1129
  10   2.0000      -0.613235       -16.6870
  11   2.0000      -0.541947       -14.7471
  12   2.0000      -0.505219       -13.7477
  13   2.0000      -0.484985       -13.1971
  14   2.0000      -0.465519       -12.6674
  15   2.0000      -0.435533       -11.8515
  16   2.0000      -0.433886       -11.8066
  17   2.0000      -0.415388       -11.3033
  18   2.0000      -0.387178       -10.5356
  19   2.0000      -0.358217        -9.7476
  20   2.0000      -0.256822        -6.9885
  21   2.0000      -0.242335        -6.5943
  22   0.0000      -0.063831        -1.7369
  23   0.0000      -0.043015        -1.1705
  24   0.0000       0.057677         1.5695
  25   0.0000       0.078649         2.1401
  26   0.0000       0.122147         3.3238

MULLIKEN ATOMIC CHARGES
-----------------------
   0 C :   -0.139542
   1 H :    0.079342
   2 C :    0.038195
   3 N :    0.223932
   4 N :   -0.073529
   5 C :    0.026203
   6 O :   -0.288582
   7 H :    0.053298
   8 H :    0.029907
   9 H :    0.050777
Sum of atomic charges:    0.0000000

LOEWDIN ATOMIC CHARGES
----------------------
   0 C :   -0.176539
   1 H :    0.058705
   2 C :    0.061378
   3 N :    0.250654
   4 N :   -0.021252
   5 C :   -0.070453
   6 O :   -0.239289
   7 H :    0.050867
   8 H :    0.037097
   9 H :    0.048833

  Mayer bond orders larger than 0.100000
B(  0-C ,  1-H ) :   0.9471 B(  0-C ,  2-C ) :   1.0437 B(  0-C ,  3-N ) :   1.3254
B(  0-C ,  4-N ) :   0.2660 B(  2-C ,  5-C ) :   1.0350 B(  2-C ,  6-O ) :   2.0791
B(  3-N ,  4-N ) :   2.2011 B(  5-C ,  7-H ) :   0.9488 B(  5-C ,  8-H ) :   0.9539
B(  5-C ,  9-H ) :   0.9500

Dispersion correction           -0.012589959
FINAL SINGLE POINT ENERGY      -301.032420742587

DIPOLE MOMENT
-------------
                                X             Y             Z
Electronic contribution:     -6.89750       1.93902       0.12156
Nuclear contribution   :      7.20127      -3.66880      -0.38627
                        -----------------------------------------
Total Dipole Moment    :      0.30377      -1.72978      -0.26471
                        -----------------------------------------
Magnitude (a.u.)       :      1.77609
Magnitude (Debye)      :      4.51446

Dispersion correction in the Hessian             ... done   (      2.3 sec)

VIBRATIONAL FREQUENCIES
-----------------------

Scaling factor for frequencies =  1.000000000  (already applied!)

   0:         0.00 cm**-1
   1:         0.00 cm**-1
   2:         0.00 cm**-1
   3:         0.00 cm**-1
   4:         0.00 cm**-1
   5:         0.00 cm**-1
   6:        37.36 cm**-1
   7:       125.13 cm**-1
   8:       142.01 cm**-1
   9:       356.25 cm**-1
  10:       457.12 cm**-1
  11:       517.01 cm**-1
  12:       567.63 cm**-1
  13:       621.30 cm**-1
  14:       646.60 cm**-1
  15:       917.49 cm**-1
  16:       970.15 cm**-1
  17:      1020.93 cm**-1
  18:      1179.71 cm**-1
  19:      1190.03 cm**-1
  20:      1349.55 cm**-1
  21:      1399.64 cm**-1
  22:      1419.69 cm**-1
  23:      1428.71 cm**-1
  24:      1738.32 cm**-1
  25:      2261.56 cm**-1
  26:      3034.25 cm**-1
  27:      3112.40 cm**-1
  28:      3158.62 cm**-1
  29:      3229.54 cm**-1

IR SPECTRUM
-----------

 Mode   freq       eps      Int      T**2         TX        TY        TZ
       cm**-1   L/(mol*cm) km/mol    a.u.
----------------------------------------------------------------------------
  6:     37.36   0.000005    0.03  0.000045  (-0.002542  0.005128 -0.003533)
  7:    125.13   0.000006    0.03  0.000015  ( 0.000120  0.000068  0.003820)
  8:    142.01   0.000650    3.28  0.001428  (-0.035467  0.013013  0.000897)
  9:    356.25   0.000735    3.71  0.000644  (-0.012242  0.021971  0.003359)
 10:    457.12   0.000644    3.26  0.000440  ( 0.019377 -0.008019 -0.000464)
 11:    517.01   0.007470   37.75  0.004509  (-0.001986 -0.010292  0.066324)
 12:    567.63   0.002597   13.12  0.001428  (-0.001386 -0.006182  0.037247)
 13:    621.30   0.005059   25.57  0.002541  ( 0.003385  0.008742 -0.049532)
 14:    646.60   0.006978   35.26  0.003368  ( 0.055225  0.016385  0.007021)
 15:    917.49   0.003580   18.09  0.001218  (-0.034867 -0.001201 -0.000655)
 16:    970.15   0.013387   67.65  0.004306  ( 0.063860  0.014914  0.002392)
 17:   1020.93   0.002489   12.58  0.000761  (-0.001768 -0.002706  0.027393)
 18:   1179.71   0.009164   46.31  0.002424  ( 0.048727  0.006734  0.002115)
 19:   1190.03   0.013303   67.23  0.003488  ( 0.058430  0.008247  0.002543)
 20:   1349.55   0.005870   29.66  0.001357  (-0.024962 -0.026462 -0.005820)
 21:   1399.64   0.124148  627.39  0.027680  ( 0.165271  0.018340  0.005400)
 22:   1419.69   0.011853   59.90  0.002605  ( 0.041737 -0.029261 -0.002690)
 23:   1428.71   0.002720   13.75  0.000594  (-0.008450  0.001369 -0.022822)
 24:   1738.32   0.068708  347.22  0.012335  ( 0.043765  0.100663  0.016916)
 25:   2261.56   0.170993  864.13  0.023595  (-0.150915  0.028621  0.000110)
 26:   3034.25   0.000101    0.51  0.000010  ( 0.002137 -0.002386 -0.000311)
 27:   3112.40   0.000705    3.56  0.000071  (-0.000823  0.002197 -0.008072)
 28:   3158.62   0.001742    8.81  0.000172  ( 0.010265  0.008029  0.001518)
 29:   3229.54   0.004729   23.90  0.000457  ( 0.005994 -0.020300 -0.002981)

--------------------------
THERMOCHEMISTRY AT 298.15K
--------------------------

Temperature         ... 298.15 K
Pressure            ... 1.00 atm
Total Mass          ... 84.08 AMU

Throughout the following assumptions are being made:
  (1) The electronic state is orbitally nondegenerate
  (2) There are no thermally accessible electronically excited states
  (3) Hindered rotations indicated by low frequency modes are not
      treated as such but are treated as vibrations and this may
      cause some error
  (4) All equations used are the standard statistical mechanics
      equations for an ideal gas
  (5) All vibrations are strictly harmonic

freq.      37.36  E(vib)   ...       0.54
freq.     125.13  E(vib)   ...       0.43
freq.     142.01  E(vib)   ...       0.41
freq.     356.25  E(vib)   ...       0.22
freq.     457.12  E(vib)   ...       0.16
freq.     517.01  E(vib)   ...       0.13
freq.     567.63  E(vib)   ...       0.11
freq.     621.30  E(vib)   ...       0.09
freq.     646.60  E(vib)   ...       0.09
freq.     917.49  E(vib)   ...       0.03
freq.     970.15  E(vib)   ...       0.03
freq.    1020.93  E(vib)   ...       0.02
freq.    1179.71  E(vib)   ...       0.01
freq.    1190.03  E(vib)   ...       0.01
freq.    1349.55  E(vib)   ...       0.01
freq.    1399.64  E(vib)   ...       0.00
freq.    1419.69  E(vib)   ...       0.00
freq.    1428.71  E(vib)   ...       0.00
freq.    1738.32  E(vib)   ...       0.00
freq.    2261.56  E(vib)   ...       0.00
freq.    3034.25  E(vib)   ...       0.00
freq.    3112.40  E(vib)   ...       0.00
freq.    3158.62  E(vib)   ...       0.00
freq.    3229.54  E(vib)   ...       0.00

------------
INNER ENERGY
------------

The inner energy is: U= E(el) + E(ZPE) + E(vib) + E(rot) + E(trans)
    E(el)   - is the total energy from the electronic structure calculation
              = E(kin-el) + E(nuc-el) + E(el-el) + E(nuc-nuc)
    E(ZPE)  - the the zero temperature vibrational energy from the frequency calculation
    E(vib)  - the the finite temperature correction to E(ZPE) due to population
              of excited vibrational states
    E(rot)  - is the rotational thermal energy
    E(trans)- is the translational thermal energy

Summary of contributions to the inner energy U:
Electronic energy                ...   -301.03242074 Eh
Zero point energy                ...      0.07035204 Eh      44.15 kcal/mol
Thermal vibrational correction   ...      0.00368771 Eh       2.31 kcal/mol
Thermal rotational correction    ...      0.00141627 Eh       0.89 kcal/mol
Thermal translational correction ...      0.00141627 Eh       0.89 kcal/mol
-----------------------------------------------------------------------
Total thermal energy                   -300.95554845 Eh

Summary of corrections to the electronic energy:
(perhaps to be used in another calculation)
Total thermal correction                  0.00652025 Eh       4.09 kcal/mol
Non-thermal (ZPE) correction              0.07035204 Eh      44.15 kcal/mol
-----------------------------------------------------------------------
Total correction                          0.07687229 Eh      48.24 kcal/mol

--------
ENTHALPY
--------

The enthalpy is H = U + kB*T
                kB is Boltzmann's constant
Total free energy                 ...   -300.95554845 Eh
Thermal Enthalpy correction       ...      0.00094421 Eh       0.59 kcal/mol
-----------------------------------------------------------------------
Total Enthalpy                    ...   -300.95460424 Eh

Note: Only C1 symmetry has been detected, increase convergence thresholds
      if your molecule has a higher symmetry. Symmetry factor of 1.0 is
      used for the rotational entropy correction.

Note: Rotational entropy computed according to Herzberg
Infrared and Raman Spectra, Chapter V,1, Van Nostrand Reinhold, 1945
Point Group:  C1, Symmetry Number:   1
Rotational constants in cm-1:     0.336960     0.077810     0.063974

Vibrational entropy computed according to the QRRHO of S. Grimme
Chem.Eur.J. 2012 18 9955

-------
ENTROPY
-------

The entropy contributions are T*S = T*(S(el)+S(vib)+S(rot)+S(trans))
     S(el)   - electronic entropy
     S(vib)  - vibrational entropy
     S(rot)  - rotational entropy
     S(trans)- translational entropy
The entropies will be listed as multiplied by the temperature to get
units of energy

Electronic entropy                ...      0.00000000 Eh      0.00 kcal/mol
Vibrational entropy               ...      0.00656501 Eh      4.12 kcal/mol
Rotational entropy                ...      0.01252773 Eh      7.86 kcal/mol
Translational entropy             ...      0.01862562 Eh     11.69 kcal/mol
-----------------------------------------------------------------------
Final entropy term                ...      0.03771836 Eh     23.67 kcal/mol

In case the symmetry of your molecule has not been determined correctly
or in case you have a reason to use a different symmetry number we print
out the resulting rotational entropy values for sn=1,12 :
 --------------------------------------------------------
|  sn= 1 | S(rot)=       0.01252773 Eh      7.86 kcal/mol|
|  sn= 2 | S(rot)=       0.01187327 Eh      7.45 kcal/mol|
|  sn= 3 | S(rot)=       0.01149044 Eh      7.21 kcal/mol|
|  sn= 4 | S(rot)=       0.01121882 Eh      7.04 kcal/mol|
|  sn= 5 | S(rot)=       0.01100813 Eh      6.91 kcal/mol|
|  sn= 6 | S(rot)=       0.01083598 Eh      6.80 kcal/mol|
|  sn= 7 | S(rot)=       0.01069044 Eh      6.71 kcal/mol|
|  sn= 8 | S(rot)=       0.01056436 Eh      6.63 kcal/mol|
|  sn= 9 | S(rot)=       0.01045315 Eh      6.56 kcal/mol|
|  sn=10 | S(rot)=       0.01035367 Eh      6.50 kcal/mol|
|  sn=11 | S(rot)=       0.01026368 Eh      6.44 kcal/mol|
|  sn=12 | S(rot)=       0.01018153 Eh      6.39 kcal/mol|
 --------------------------------------------------------

-------------------
GIBBS FREE ENERGY
-------------------

The Gibbs free energy is G = H - T*S

Total enthalpy                    ...   -300.95460424 Eh
Total entropy correction          ...     -0.03771836 Eh    -23.67 kcal/mol
-----------------------------------------------------------------------
Final Gibbs free energy         ...   -300.99232260 Eh

For completeness - the Gibbs free energy minus the electronic energy
G-E(el)                           ...      0.04009814 Eh     25.16 kcal/mol

                             ****ORCA TERMINATED NORMALLY****
TOTAL RUN TIME: 0 days 0 hours 8 minutes 49 seconds 885 msec
