                         Program Version 5.0.3 -  RELEASE  -
|  1> ! b3lyp d3bj def2-svp Freq Opt tightscf cpcm(CH2Cl2)
|  2> %pal
|  3>     nprocs 1
|  4> end
|  5> %MaxCore 1000
|  6> %freq
|  7>     Temp    298.15
|  8> end
|  9>
| 10> *xyz 0 1
| 11> C     0.934866  -0.645835  -0.118781
| 12> C    -0.312224   0.126756   0.008735
| 13> N     0.822161  -1.933417  -0.330475
| 14> O    -1.377214  -0.695565  -0.080738
| 15> O    -0.366061   1.325005   0.170151
| 16> C    -2.653190  -0.072377   0.149355
| 17> N     0.739339  -3.101242  -0.407590
| 18> H     1.887263  -0.172392   0.059483
| 19> H    -3.386502  -0.863239   0.043969
| 20> H    -2.693616   0.355296   1.147760
| 21> H    -2.831051   0.712699  -0.581033
| 22> *
| 23>
| 24>
| 25>
| 26>
| 27>
| 28>                          ****END OF INPUT****
 Total Charge           Charge          ....    0
 Multiplicity           Mult            ....    1
 Number of Electrons    NEL             ....   52
Dispersion correction           -0.013865771
FINAL SINGLE POINT ENERGY      -376.168501819943
Dispersion correction            ... done
Dispersion correction           -0.013806928
FINAL SINGLE POINT ENERGY      -376.174085063574
Dispersion correction            ... done
Dispersion correction           -0.013783156
FINAL SINGLE POINT ENERGY      -376.174786345869
Dispersion correction            ... done
FINAL SINGLE POINT ENERGY      -376.175015153042
FINAL SINGLE POINT ENERGY      -376.175030572547
FINAL SINGLE POINT ENERGY      -376.175033157600
FINAL SINGLE POINT ENERGY      -376.175048343697
FINAL SINGLE POINT ENERGY      -376.175049764523
FINAL SINGLE POINT ENERGY      -376.175050383272
FINAL SINGLE POINT ENERGY      -376.175050761524
FINAL SINGLE POINT ENERGY      -376.175051268230
FINAL SINGLE POINT ENERGY      -376.175052065132
FINAL SINGLE POINT ENERGY      -376.175053253489
Dispersion correction           -0.013771560
FINAL SINGLE POINT ENERGY      -376.175054295475
Dispersion correction            ... done
Dispersion correction           -0.013772532
FINAL SINGLE POINT ENERGY      -376.175055066754
Dispersion correction            ... done
                    ***********************HURRAY********************

CARTESIAN COORDINATES (ANGSTROEM)
---------------------------------
  C      0.916410   -0.667518   -0.097726
  C     -0.320523    0.087088    0.064176
  N      0.884865   -1.960428   -0.291398
  O     -1.411566   -0.700249   -0.006984
  O     -0.360069    1.288195    0.242681
  C     -2.677559   -0.049867    0.141975
  N      0.845884   -3.079257   -0.459404
  H      1.894938   -0.189320   -0.066503
  H     -3.435304   -0.836861    0.046002
  H     -2.753811    0.432689    1.128218
  H     -2.819493    0.711219   -0.640200

 Multiplicity           Mult            ....    1
 Number of Electrons    NEL             ....   52
 Basis Dimension        Dim             ....  118

ORBITAL ENERGIES
----------------

  NO   OCC          E(Eh)            E(eV)
   0   2.0000     -19.176278      -521.8130
   1   2.0000     -19.118784      -520.2486
   2   2.0000     -14.490856      -394.3162
   3   2.0000     -14.425337      -392.5334
   4   2.0000     -10.321653      -280.8665
   5   2.0000     -10.237844      -278.5859
   6   2.0000     -10.237234      -278.5693
   7   2.0000      -1.125432       -30.6246
   8   2.0000      -1.093261       -29.7492
   9   2.0000      -1.003817       -27.3153
  10   2.0000      -0.867784       -23.6136
  11   2.0000      -0.726357       -19.7652
  12   2.0000      -0.623052       -16.9541
  13   2.0000      -0.558952       -15.2099
  14   2.0000      -0.532902       -14.5010
  15   2.0000      -0.509355       -13.8602
  16   2.0000      -0.476811       -12.9747
  17   2.0000      -0.470666       -12.8075
  18   2.0000      -0.464431       -12.6378
  19   2.0000      -0.444430       -12.0936
  20   2.0000      -0.410989       -11.1836
  21   2.0000      -0.397847       -10.8260
  22   2.0000      -0.358747        -9.7620
  23   2.0000      -0.305575        -8.3151
  24   2.0000      -0.285611        -7.7719
  25   2.0000      -0.244164        -6.6440
  26   0.0000      -0.066116        -1.7991
  27   0.0000      -0.034400        -0.9361
  28   0.0000       0.079523         2.1639
  29   0.0000       0.085286         2.3208
  30   0.0000       0.102070         2.7775

MULLIKEN ATOMIC CHARGES
-----------------------
   0 C :   -0.149377
   1 C :    0.246810
   2 N :    0.223297
   3 O :   -0.335616
   4 O :   -0.291315
   5 C :    0.179957
   6 N :   -0.077098
   7 H :    0.083068
   8 H :    0.045117
   9 H :    0.037762
  10 H :    0.037394
Sum of atomic charges:    0.0000000

LOEWDIN ATOMIC CHARGES
----------------------
   0 C :   -0.172378
   1 C :    0.071470
   2 N :    0.242868
   3 O :   -0.117310
   4 O :   -0.232747
   5 C :    0.088995
   6 N :   -0.025176
   7 H :    0.063588
   8 H :    0.031661
   9 H :    0.024616
  10 H :    0.024414

  Mayer bond orders larger than 0.100000
B(  0-C ,  1-C ) :   1.0812 B(  0-C ,  2-N ) :   1.3186 B(  0-C ,  6-N ) :   0.2793
B(  0-C ,  7-H ) :   0.9497 B(  1-C ,  3-O ) :   1.1970 B(  1-C ,  4-O ) :   1.9774
B(  2-N ,  6-N ) :   2.1856 B(  3-O ,  5-C ) :   0.9096 B(  5-C ,  8-H ) :   0.9795
B(  5-C ,  9-H ) :   0.9758 B(  5-C , 10-H ) :   0.9754

Dispersion correction           -0.013773217
FINAL SINGLE POINT ENERGY      -376.175055470936

DIPOLE MOMENT
-------------
                                X             Y             Z
Electronic contribution:      5.19979      -3.24429      -0.70161
Nuclear contribution   :     -5.31558       2.69296       0.62642
                        -----------------------------------------
Total Dipole Moment    :     -0.11578      -0.55133      -0.07518
                        -----------------------------------------
Magnitude (a.u.)       :      0.56835
Magnitude (Debye)      :      1.44464

Dispersion correction in the Hessian             ... done   (      4.4 sec)

VIBRATIONAL FREQUENCIES
-----------------------

Scaling factor for frequencies =  1.000000000  (already applied!)

   0:         0.00 cm**-1
   1:         0.00 cm**-1
   2:         0.00 cm**-1
   3:         0.00 cm**-1
   4:         0.00 cm**-1
   5:         0.00 cm**-1
   6:       102.06 cm**-1
   7:       131.74 cm**-1
   8:       138.22 cm**-1
   9:       173.16 cm**-1
  10:       294.24 cm**-1
  11:       402.49 cm**-1
  12:       508.59 cm**-1
  13:       538.94 cm**-1
  14:       572.70 cm**-1
  15:       728.60 cm**-1
  16:       747.29 cm**-1
  17:       873.95 cm**-1
  18:      1089.13 cm**-1
  19:      1166.79 cm**-1
  20:      1176.17 cm**-1
  21:      1199.02 cm**-1
  22:      1273.72 cm**-1
  23:      1395.94 cm**-1
  24:      1445.39 cm**-1
  25:      1452.16 cm**-1
  26:      1469.83 cm**-1
  27:      1775.60 cm**-1
  28:      2259.97 cm**-1
  29:      3043.04 cm**-1
  30:      3131.91 cm**-1
  31:      3172.28 cm**-1
  32:      3242.18 cm**-1

IR SPECTRUM
-----------

 Mode   freq       eps      Int      T**2         TX        TY        TZ
       cm**-1   L/(mol*cm) km/mol    a.u.
----------------------------------------------------------------------------
  6:    102.06   0.000007    0.03  0.000020  (-0.000350 -0.000218  0.004453)
  7:    131.74   0.000334    1.69  0.000792  (-0.022957  0.016003  0.002994)
  8:    138.22   0.000192    0.97  0.000433  ( 0.000645  0.002673 -0.020626)
  9:    173.16   0.003044   15.38  0.005486  (-0.003201  0.010938 -0.073189)
 10:    294.24   0.004470   22.59  0.004741  (-0.063167 -0.027362 -0.001377)
 11:    402.49   0.002694   13.61  0.002089  ( 0.038837 -0.023585 -0.004917)
 12:    508.59   0.009404   47.52  0.005770  ( 0.003087 -0.011087  0.075085)
 13:    538.94   0.000277    1.40  0.000160  (-0.006929  0.010189  0.002900)
 14:    572.70   0.000591    2.99  0.000322  (-0.000903  0.002906 -0.017684)
 15:    728.60   0.001904    9.62  0.000815  ( 0.028536  0.001025 -0.000063)
 16:    747.29   0.012517   63.26  0.005227  (-0.002537  0.010651 -0.071464)
 17:    873.95   0.002940   14.86  0.001050  ( 0.013015  0.029432  0.003773)
 18:   1089.13   0.020031  101.23  0.005739  (-0.073655  0.016794  0.005686)
 19:   1166.79   0.000291    1.47  0.000078  ( 0.001371 -0.001648  0.008556)
 20:   1176.17   0.000651    3.29  0.000173  (-0.004190 -0.012348 -0.001610)
 21:   1199.02   0.003298   16.67  0.000858  ( 0.029262  0.000747 -0.001257)
 22:   1273.72   0.122040  616.74  0.029900  ( 0.167606 -0.040463 -0.013080)
 23:   1395.94   0.046944  237.24  0.010494  ( 0.068119 -0.075174 -0.014251)
 24:   1445.39   0.002601   13.14  0.000562  (-0.005905  0.004605 -0.022482)
 25:   1452.16   0.010246   51.78  0.002202  (-0.044292  0.014097  0.006431)
 26:   1469.83   0.012856   64.97  0.002729  (-0.027413  0.043863  0.007349)
 27:   1775.60   0.185642  938.16  0.032627  ( 0.008931 -0.178418 -0.026721)
 28:   2259.97   0.165491  836.32  0.022851  (-0.027377  0.146833  0.023283)
 29:   3043.04   0.007184   36.31  0.000737  ( 0.024690 -0.010886 -0.002943)
 30:   3131.91   0.004539   22.94  0.000452  (-0.000932  0.003123 -0.021016)
 31:   3172.28   0.002242   11.33  0.000221  (-0.008574 -0.012034 -0.001483)
 32:   3242.18   0.006681   33.76  0.000643  ( 0.020643  0.014664  0.001357)

--------------------------
THERMOCHEMISTRY AT 298.15K
--------------------------

Temperature         ... 298.15 K
Pressure            ... 1.00 atm
Total Mass          ... 100.08 AMU

Throughout the following assumptions are being made:
  (1) The electronic state is orbitally nondegenerate
  (2) There are no thermally accessible electronically excited states
  (3) Hindered rotations indicated by low frequency modes are not
      treated as such but are treated as vibrations and this may
      cause some error
  (4) All equations used are the standard statistical mechanics
      equations for an ideal gas
  (5) All vibrations are strictly harmonic

freq.     102.06  E(vib)   ...       0.46
freq.     131.74  E(vib)   ...       0.42
freq.     138.22  E(vib)   ...       0.42
freq.     173.16  E(vib)   ...       0.38
freq.     294.24  E(vib)   ...       0.27
freq.     402.49  E(vib)   ...       0.19
freq.     508.59  E(vib)   ...       0.14
freq.     538.94  E(vib)   ...       0.12
freq.     572.70  E(vib)   ...       0.11
freq.     728.60  E(vib)   ...       0.06
freq.     747.29  E(vib)   ...       0.06
freq.     873.95  E(vib)   ...       0.04
freq.    1089.13  E(vib)   ...       0.02
freq.    1166.79  E(vib)   ...       0.01
freq.    1176.17  E(vib)   ...       0.01
freq.    1199.02  E(vib)   ...       0.01
freq.    1273.72  E(vib)   ...       0.01
freq.    1395.94  E(vib)   ...       0.00
freq.    1445.39  E(vib)   ...       0.00
freq.    1452.16  E(vib)   ...       0.00
freq.    1469.83  E(vib)   ...       0.00
freq.    1775.60  E(vib)   ...       0.00
freq.    2259.97  E(vib)   ...       0.00
freq.    3043.04  E(vib)   ...       0.00
freq.    3131.91  E(vib)   ...       0.00
freq.    3172.28  E(vib)   ...       0.00
freq.    3242.18  E(vib)   ...       0.00

------------
INNER ENERGY
------------

The inner energy is: U= E(el) + E(ZPE) + E(vib) + E(rot) + E(trans)
    E(el)   - is the total energy from the electronic structure calculation
              = E(kin-el) + E(nuc-el) + E(el-el) + E(nuc-nuc)
    E(ZPE)  - the the zero temperature vibrational energy from the frequency calculation
    E(vib)  - the the finite temperature correction to E(ZPE) due to population
              of excited vibrational states
    E(rot)  - is the rotational thermal energy
    E(trans)- is the translational thermal energy

Summary of contributions to the inner energy U:
Electronic energy                ...   -376.17505547 Eh
Zero point energy                ...      0.07633023 Eh      47.90 kcal/mol
Thermal vibrational correction   ...      0.00437545 Eh       2.75 kcal/mol
Thermal rotational correction    ...      0.00141627 Eh       0.89 kcal/mol
Thermal translational correction ...      0.00141627 Eh       0.89 kcal/mol
-----------------------------------------------------------------------
Total thermal energy                   -376.09151724 Eh

Summary of corrections to the electronic energy:
(perhaps to be used in another calculation)
Total thermal correction                  0.00720800 Eh       4.52 kcal/mol
Non-thermal (ZPE) correction              0.07633023 Eh      47.90 kcal/mol
-----------------------------------------------------------------------
Total correction                          0.08353823 Eh      52.42 kcal/mol

--------
ENTHALPY
--------

The enthalpy is H = U + kB*T
                kB is Boltzmann's constant
Total free energy                 ...   -376.09151724 Eh
Thermal Enthalpy correction       ...      0.00094421 Eh       0.59 kcal/mol
-----------------------------------------------------------------------
Total Enthalpy                    ...   -376.09057304 Eh

Note: Only C1 symmetry has been detected, increase convergence thresholds
      if your molecule has a higher symmetry. Symmetry factor of 1.0 is
      used for the rotational entropy correction.

Note: Rotational entropy computed according to Herzberg
Infrared and Raman Spectra, Chapter V,1, Van Nostrand Reinhold, 1945
Point Group:  C1, Symmetry Number:   1
Rotational constants in cm-1:     0.180277     0.063295     0.047272

Vibrational entropy computed according to the QRRHO of S. Grimme
Chem.Eur.J. 2012 18 9955

-------
ENTROPY
-------

The entropy contributions are T*S = T*(S(el)+S(vib)+S(rot)+S(trans))
     S(el)   - electronic entropy
     S(vib)  - vibrational entropy
     S(rot)  - rotational entropy
     S(trans)- translational entropy
The entropies will be listed as multiplied by the temperature to get
units of energy

Electronic entropy                ...      0.00000000 Eh      0.00 kcal/mol
Vibrational entropy               ...      0.00770865 Eh      4.84 kcal/mol
Rotational entropy                ...      0.01306332 Eh      8.20 kcal/mol
Translational entropy             ...      0.01887233 Eh     11.84 kcal/mol
-----------------------------------------------------------------------
Final entropy term                ...      0.03964430 Eh     24.88 kcal/mol

In case the symmetry of your molecule has not been determined correctly
or in case you have a reason to use a different symmetry number we print
out the resulting rotational entropy values for sn=1,12 :
 --------------------------------------------------------
|  sn= 1 | S(rot)=       0.01306332 Eh      8.20 kcal/mol|
|  sn= 2 | S(rot)=       0.01240886 Eh      7.79 kcal/mol|
|  sn= 3 | S(rot)=       0.01202603 Eh      7.55 kcal/mol|
|  sn= 4 | S(rot)=       0.01175440 Eh      7.38 kcal/mol|
|  sn= 5 | S(rot)=       0.01154372 Eh      7.24 kcal/mol|
|  sn= 6 | S(rot)=       0.01137157 Eh      7.14 kcal/mol|
|  sn= 7 | S(rot)=       0.01122603 Eh      7.04 kcal/mol|
|  sn= 8 | S(rot)=       0.01109995 Eh      6.97 kcal/mol|
|  sn= 9 | S(rot)=       0.01098874 Eh      6.90 kcal/mol|
|  sn=10 | S(rot)=       0.01088926 Eh      6.83 kcal/mol|
|  sn=11 | S(rot)=       0.01079927 Eh      6.78 kcal/mol|
|  sn=12 | S(rot)=       0.01071712 Eh      6.73 kcal/mol|
 --------------------------------------------------------

-------------------
GIBBS FREE ENERGY
-------------------

The Gibbs free energy is G = H - T*S

Total enthalpy                    ...   -376.09057304 Eh
Total entropy correction          ...     -0.03964430 Eh    -24.88 kcal/mol
-----------------------------------------------------------------------
Final Gibbs free energy         ...   -376.13021733 Eh

For completeness - the Gibbs free energy minus the electronic energy
G-E(el)                           ...      0.04483814 Eh     28.14 kcal/mol

                             ****ORCA TERMINATED NORMALLY****
TOTAL RUN TIME: 0 days 0 hours 16 minutes 39 seconds 65 msec
