                         Program Version 5.0.3 -  RELEASE  -
|  1> #ester_c01_sp
|  2> ! B3LYP tightscf Freq Opt 6-31G* CPCM(CycloHexane)
|  3> %pal
|  4>     nprocs 1
|  5> end
|  6> %MaxCore 1000
|  7> %freq
|  8>     Temp    298.15
|  9> end
| 10>
| 11> *xyz 0 1
| 12> C     0.917852  -0.637477  -0.212483
| 13> C    -0.307682   0.128522  -0.016164
| 14> N     2.049677   0.016640  -0.238808
| 15> O    -1.373434  -0.692560  -0.012876
| 16> O    -0.375873   1.334518   0.125684
| 17> C    -2.649232  -0.071566   0.170809
| 18> N     3.020133   0.598093  -0.258681
| 19> H     0.960640  -1.719095  -0.339346
| 20> H    -2.698332   0.437846   1.145350
| 21> H    -2.844281   0.663409  -0.624848
| 22> C    -3.674601  -1.192126   0.112821
| 23> H    -3.650137  -1.676924  -0.886065
| 24> H    -4.692047  -0.784480   0.291735
| 25> H    -3.448628  -1.953203   0.889415
| 26> *
| 27>
| 28>
| 29>
| 30>                          ****END OF INPUT****
 Total Charge           Charge          ....    0
 Multiplicity           Mult            ....    1
 Number of Electrons    NEL             ....   60
FINAL SINGLE POINT ENERGY      -415.715390208407
FINAL SINGLE POINT ENERGY      -415.716557298558
FINAL SINGLE POINT ENERGY      -415.716689244747
FINAL SINGLE POINT ENERGY      -415.716729390233
FINAL SINGLE POINT ENERGY      -415.716730859133
                    ***********************HURRAY********************

CARTESIAN COORDINATES (ANGSTROEM)
---------------------------------
  C      0.928703   -0.628118   -0.217015
  C     -0.302437    0.128593   -0.016017
  N      2.057434    0.030950   -0.242716
  O     -1.360112   -0.713608   -0.017534
  O     -0.377226    1.336885    0.133228
  C     -2.656294   -0.094605    0.174229
  N      3.031524    0.616824   -0.262604
  H      0.978450   -1.700450   -0.346963
  H     -2.660341    0.421030    1.140177
  H     -2.806551    0.656727   -0.607769
  C     -3.697879   -1.195443    0.113062
  H     -3.679082   -1.700660   -0.858644
  H     -4.695034   -0.764616    0.258698
  H     -3.527102   -1.941912    0.896411

 Multiplicity           Mult            ....    1
 Number of Electrons    NEL             ....   60
 Basis Dimension        Dim             ....  124

ORBITAL ENERGIES
----------------

  NO   OCC          E(Eh)            E(eV)
   0   2.0000     -19.182077      -521.9708
   1   2.0000     -19.124732      -520.4104
   2   2.0000     -14.496678      -394.4747
   3   2.0000     -14.434338      -392.7783
   4   2.0000     -10.317091      -280.7423
   5   2.0000     -10.233511      -278.4680
   6   2.0000     -10.232277      -278.4344
   7   2.0000     -10.172041      -276.7953
   8   2.0000      -1.131204       -30.7816
   9   2.0000      -1.094577       -29.7850
  10   2.0000      -1.007773       -27.4229
  11   2.0000      -0.869006       -23.6469
  12   2.0000      -0.772119       -21.0104
  13   2.0000      -0.671256       -18.2658
  14   2.0000      -0.595122       -16.1941
  15   2.0000      -0.547990       -14.9116
  16   2.0000      -0.539248       -14.6737
  17   2.0000      -0.502878       -13.6840
  18   2.0000      -0.483359       -13.1529
  19   2.0000      -0.468541       -12.7497
  20   2.0000      -0.461230       -12.5507
  21   2.0000      -0.435655       -11.8548
  22   2.0000      -0.415637       -11.3101
  23   2.0000      -0.396841       -10.7986
  24   2.0000      -0.388362       -10.5679
  25   2.0000      -0.358603        -9.7581
  26   2.0000      -0.348985        -9.4964
  27   2.0000      -0.296208        -8.0602
  28   2.0000      -0.274799        -7.4777
  29   2.0000      -0.239755        -6.5241
  30   0.0000      -0.063874        -1.7381
  31   0.0000      -0.029421        -0.8006
  32   0.0000       0.086921         2.3652
  33   0.0000       0.107989         2.9385
  34   0.0000       0.130972         3.5639

MULLIKEN ATOMIC CHARGES
-----------------------
   0 C :   -0.198866
   1 C :    0.591420
   2 N :    0.184302
   3 O :   -0.474695
   4 O :   -0.487639
   5 C :   -0.025106
   6 N :   -0.157413
   7 H :    0.221822
   8 H :    0.163426
   9 H :    0.163934
  10 C :   -0.468303
  11 H :    0.163526
  12 H :    0.160081
  13 H :    0.163512
Sum of atomic charges:   -0.0000000

LOEWDIN ATOMIC CHARGES
----------------------
   0 C :   -0.281693
   1 C :    0.132181
   2 N :    0.217833
   3 O :   -0.165827
   4 O :   -0.275466
   5 C :   -0.086640
   6 N :   -0.016550
   7 H :    0.181254
   8 H :    0.129532
   9 H :    0.129831
  10 C :   -0.372249
  11 H :    0.134776
  12 H :    0.138255
  13 H :    0.134763

  Mayer bond orders larger than 0.100000
B(  0-C ,  1-C ) :   1.0577 B(  0-C ,  2-N ) :   1.3105 B(  0-C ,  6-N ) :   0.2672
B(  0-C ,  7-H ) :   0.8862 B(  1-C ,  3-O ) :   1.0279 B(  1-C ,  4-O ) :   1.8418
B(  2-N ,  6-N ) :   2.3321 B(  3-O ,  5-C ) :   0.8430 B(  5-C ,  8-H ) :   0.9303
B(  5-C ,  9-H ) :   0.9298 B(  5-C , 10-C ) :   1.0276 B( 10-C , 11-H ) :   0.9468
B( 10-C , 12-H ) :   0.9426 B( 10-C , 13-H ) :   0.9467

FINAL SINGLE POINT ENERGY      -415.716733084861

DIPOLE MOMENT
-------------
                                X             Y             Z
Electronic contribution:     12.80929       3.21911      -0.74191
Nuclear contribution   :    -13.29543      -4.33250       0.65425
                        -----------------------------------------
Total Dipole Moment    :     -0.48614      -1.11339      -0.08766
                        -----------------------------------------
Magnitude (a.u.)       :      1.21805
Magnitude (Debye)      :      3.09604

VIBRATIONAL FREQUENCIES
-----------------------

Scaling factor for frequencies =  1.000000000  (already applied!)

   0:         0.00 cm**-1
   1:         0.00 cm**-1
   2:         0.00 cm**-1
   3:         0.00 cm**-1
   4:         0.00 cm**-1
   5:         0.00 cm**-1
   6:        47.87 cm**-1
   7:        91.59 cm**-1
   8:       113.62 cm**-1
   9:       158.65 cm**-1
  10:       211.45 cm**-1
  11:       267.88 cm**-1
  12:       350.77 cm**-1
  13:       413.18 cm**-1
  14:       481.81 cm**-1
  15:       496.68 cm**-1
  16:       565.29 cm**-1
  17:       739.30 cm**-1
  18:       768.20 cm**-1
  19:       819.47 cm**-1
  20:       894.88 cm**-1
  21:       994.38 cm**-1
  22:      1054.71 cm**-1
  23:      1144.20 cm**-1
  24:      1188.81 cm**-1
  25:      1193.35 cm**-1
  26:      1227.98 cm**-1
  27:      1304.60 cm**-1
  28:      1396.77 cm**-1
  29:      1433.89 cm**-1
  30:      1452.18 cm**-1
  31:      1508.65 cm**-1
  32:      1517.77 cm**-1
  33:      1541.55 cm**-1
  34:      1769.52 cm**-1
  35:      2237.93 cm**-1
  36:      3056.11 cm**-1
  37:      3073.35 cm**-1
  38:      3111.12 cm**-1
  39:      3126.90 cm**-1
  40:      3135.92 cm**-1
  41:      3267.37 cm**-1

IR SPECTRUM
-----------

 Mode   freq       eps      Int      T**2         TX        TY        TZ
       cm**-1   L/(mol*cm) km/mol    a.u.
----------------------------------------------------------------------------
  6:     47.87   0.000120    0.61  0.000785  ( 0.002580 -0.003153  0.027717)
  7:     91.59   0.000488    2.46  0.001661  (-0.003926  0.004469 -0.040323)
  8:    113.62   0.000109    0.55  0.000301  (-0.016580 -0.005051  0.000564)
  9:    158.65   0.001201    6.07  0.002363  (-0.004382  0.005424 -0.048106)
 10:    211.45   0.001505    7.61  0.002221  (-0.034959 -0.031609 -0.000148)
 11:    267.88   0.000312    1.58  0.000363  (-0.001174  0.002637 -0.018836)
 12:    350.77   0.002741   13.85  0.002438  ( 0.049139  0.003048 -0.003770)
 13:    413.18   0.000452    2.29  0.000342  (-0.012372 -0.013701 -0.000921)
 14:    481.81   0.000072    0.37  0.000047  (-0.001573 -0.006589 -0.001006)
 15:    496.68   0.009560   48.31  0.006007  ( 0.006862 -0.008880  0.076687)
 16:    565.29   0.000003    0.02  0.000002  ( 0.000110 -0.000127  0.001285)
 17:    739.30   0.008333   42.11  0.003517  (-0.005429  0.007004 -0.058643)
 18:    768.20   0.002242   11.33  0.000911  (-0.011009  0.027740  0.004461)
 19:    819.47   0.000056    0.28  0.000021  ( 0.000267 -0.000439  0.004593)
 20:    894.88   0.000724    3.66  0.000253  (-0.013483  0.008102  0.002263)
 21:    994.38   0.000355    1.79  0.000111  ( 0.008288  0.006533  0.000022)
 22:   1054.71   0.015374   77.70  0.004549  (-0.066777  0.006640  0.006754)
 23:   1144.20   0.001472    7.44  0.000401  ( 0.005783 -0.018913 -0.003205)
 24:   1188.81   0.001512    7.64  0.000397  (-0.011582  0.000882 -0.016188)
 25:   1193.35   0.037210  188.05  0.009731  (-0.097291 -0.013952  0.008396)
 26:   1227.98   0.124301  628.17  0.031588  ( 0.174645  0.030468 -0.012616)
 27:   1304.60   0.000163    0.82  0.000039  ( 0.000196  0.001097 -0.006134)
 28:   1396.77   0.040149  202.89  0.008970  (-0.091582 -0.023479  0.005598)
 29:   1433.89   0.047153  238.29  0.010262  (-0.099415 -0.018243  0.006777)
 30:   1452.18   0.022391  113.15  0.004812  (-0.069013  0.001812  0.006749)
 31:   1508.65   0.001307    6.60  0.000270  ( 0.001521 -0.002307  0.016205)
 32:   1517.77   0.000262    1.32  0.000054  (-0.006511  0.003114  0.001315)
 33:   1541.55   0.001351    6.83  0.000274  ( 0.007514 -0.014536 -0.002399)
 34:   1769.52   0.058750  296.90  0.010361  (-0.037338  0.093593  0.014388)
 35:   2237.93   0.128455  649.16  0.017912  (-0.127298 -0.040750  0.006850)
 36:   3056.11   0.003783   19.12  0.000386  ( 0.014521  0.013235  0.000505)
 37:   3073.35   0.004255   21.50  0.000432  (-0.010081  0.017717  0.004069)
 38:   3111.12   0.000782    3.95  0.000078  ( 0.000594 -0.001041  0.008777)
 39:   3126.90   0.005990   30.27  0.000598  ( 0.015983 -0.018251 -0.003035)
 40:   3135.92   0.010893   55.05  0.001084  (-0.002542  0.004004 -0.032580)
 41:   3267.37   0.002640   13.34  0.000252  (-0.004675 -0.015110 -0.001409)

--------------------------
THERMOCHEMISTRY AT 298.15K
--------------------------

Temperature         ... 298.15 K
Pressure            ... 1.00 atm
Total Mass          ... 114.10 AMU

Throughout the following assumptions are being made:
  (1) The electronic state is orbitally nondegenerate
  (2) There are no thermally accessible electronically excited states
  (3) Hindered rotations indicated by low frequency modes are not
      treated as such but are treated as vibrations and this may
      cause some error
  (4) All equations used are the standard statistical mechanics
      equations for an ideal gas
  (5) All vibrations are strictly harmonic

freq.      47.87  E(vib)   ...       0.53
freq.      91.59  E(vib)   ...       0.47
freq.     113.62  E(vib)   ...       0.44
freq.     158.65  E(vib)   ...       0.39
freq.     211.45  E(vib)   ...       0.34
freq.     267.88  E(vib)   ...       0.29
freq.     350.77  E(vib)   ...       0.23
freq.     413.18  E(vib)   ...       0.19
freq.     481.81  E(vib)   ...       0.15
freq.     496.68  E(vib)   ...       0.14
freq.     565.29  E(vib)   ...       0.11
freq.     739.30  E(vib)   ...       0.06
freq.     768.20  E(vib)   ...       0.06
freq.     819.47  E(vib)   ...       0.05
freq.     894.88  E(vib)   ...       0.03
freq.     994.38  E(vib)   ...       0.02
freq.    1054.71  E(vib)   ...       0.02
freq.    1144.20  E(vib)   ...       0.01
freq.    1188.81  E(vib)   ...       0.01
freq.    1193.35  E(vib)   ...       0.01
freq.    1227.98  E(vib)   ...       0.01
freq.    1304.60  E(vib)   ...       0.01
freq.    1396.77  E(vib)   ...       0.00
freq.    1433.89  E(vib)   ...       0.00
freq.    1452.18  E(vib)   ...       0.00
freq.    1508.65  E(vib)   ...       0.00
freq.    1517.77  E(vib)   ...       0.00
freq.    1541.55  E(vib)   ...       0.00
freq.    1769.52  E(vib)   ...       0.00
freq.    2237.93  E(vib)   ...       0.00
freq.    3056.11  E(vib)   ...       0.00
freq.    3073.35  E(vib)   ...       0.00
freq.    3111.12  E(vib)   ...       0.00
freq.    3126.90  E(vib)   ...       0.00
freq.    3135.92  E(vib)   ...       0.00
freq.    3267.37  E(vib)   ...       0.00

------------
INNER ENERGY
------------

The inner energy is: U= E(el) + E(ZPE) + E(vib) + E(rot) + E(trans)
    E(el)   - is the total energy from the electronic structure calculation
              = E(kin-el) + E(nuc-el) + E(el-el) + E(nuc-nuc)
    E(ZPE)  - the the zero temperature vibrational energy from the frequency calculation
    E(vib)  - the the finite temperature correction to E(ZPE) due to population
              of excited vibrational states
    E(rot)  - is the rotational thermal energy
    E(trans)- is the translational thermal energy

Summary of contributions to the inner energy U:
Electronic energy                ...   -415.71673308 Eh
Zero point energy                ...      0.10515492 Eh      65.99 kcal/mol
Thermal vibrational correction   ...      0.00573265 Eh       3.60 kcal/mol
Thermal rotational correction    ...      0.00141627 Eh       0.89 kcal/mol
Thermal translational correction ...      0.00141627 Eh       0.89 kcal/mol
-----------------------------------------------------------------------
Total thermal energy                   -415.60301298 Eh

Summary of corrections to the electronic energy:
(perhaps to be used in another calculation)
Total thermal correction                  0.00856519 Eh       5.37 kcal/mol
Non-thermal (ZPE) correction              0.10515492 Eh      65.99 kcal/mol
-----------------------------------------------------------------------
Total correction                          0.11372011 Eh      71.36 kcal/mol

--------
ENTHALPY
--------

The enthalpy is H = U + kB*T
                kB is Boltzmann's constant
Total free energy                 ...   -415.60301298 Eh
Thermal Enthalpy correction       ...      0.00094421 Eh       0.59 kcal/mol
-----------------------------------------------------------------------
Total Enthalpy                    ...   -415.60206877 Eh

Note: Only C1 symmetry has been detected, increase convergence thresholds
      if your molecule has a higher symmetry. Symmetry factor of 1.0 is
      used for the rotational entropy correction.

Note: Rotational entropy computed according to Herzberg
Infrared and Raman Spectra, Chapter V,1, Van Nostrand Reinhold, 1945
Point Group:  C1, Symmetry Number:   1
Rotational constants in cm-1:     0.277848     0.030482     0.027756

Vibrational entropy computed according to the QRRHO of S. Grimme
Chem.Eur.J. 2012 18 9955

-------
ENTROPY
-------

The entropy contributions are T*S = T*(S(el)+S(vib)+S(rot)+S(trans))
     S(el)   - electronic entropy
     S(vib)  - vibrational entropy
     S(rot)  - rotational entropy
     S(trans)- translational entropy
The entropies will be listed as multiplied by the temperature to get
units of energy

Electronic entropy                ...      0.00000000 Eh      0.00 kcal/mol
Vibrational entropy               ...      0.01014775 Eh      6.37 kcal/mol
Rotational entropy                ...      0.01345540 Eh      8.44 kcal/mol
Translational entropy             ...      0.01905811 Eh     11.96 kcal/mol
-----------------------------------------------------------------------
Final entropy term                ...      0.04266125 Eh     26.77 kcal/mol

In case the symmetry of your molecule has not been determined correctly
or in case you have a reason to use a different symmetry number we print
out the resulting rotational entropy values for sn=1,12 :
 --------------------------------------------------------
|  sn= 1 | S(rot)=       0.01345540 Eh      8.44 kcal/mol|
|  sn= 2 | S(rot)=       0.01280094 Eh      8.03 kcal/mol|
|  sn= 3 | S(rot)=       0.01241811 Eh      7.79 kcal/mol|
|  sn= 4 | S(rot)=       0.01214649 Eh      7.62 kcal/mol|
|  sn= 5 | S(rot)=       0.01193580 Eh      7.49 kcal/mol|
|  sn= 6 | S(rot)=       0.01176365 Eh      7.38 kcal/mol|
|  sn= 7 | S(rot)=       0.01161811 Eh      7.29 kcal/mol|
|  sn= 8 | S(rot)=       0.01149203 Eh      7.21 kcal/mol|
|  sn= 9 | S(rot)=       0.01138082 Eh      7.14 kcal/mol|
|  sn=10 | S(rot)=       0.01128134 Eh      7.08 kcal/mol|
|  sn=11 | S(rot)=       0.01119135 Eh      7.02 kcal/mol|
|  sn=12 | S(rot)=       0.01110920 Eh      6.97 kcal/mol|
 --------------------------------------------------------

-------------------
GIBBS FREE ENERGY
-------------------

The Gibbs free energy is G = H - T*S

Total enthalpy                    ...   -415.60206877 Eh
Total entropy correction          ...     -0.04266125 Eh    -26.77 kcal/mol
-----------------------------------------------------------------------
Final Gibbs free energy         ...   -415.64473002 Eh

For completeness - the Gibbs free energy minus the electronic energy

                             ****ORCA TERMINATED NORMALLY****
TOTAL RUN TIME: 0 days 0 hours 7 minutes 44 seconds 255 msec
