                         Program Version 5.0.3 -  RELEASE  -
|  1> ! B3LYP tightscf Freq Opt 6-31G* CPCM(CycloHexane)
|  2> %pal
|  3>     nprocs 1
|  4> end
|  5> %MaxCore 1000
|  6> %freq
|  7>     Temp    298.15
|  8> end
|  9>
| 10> *xyz 0 1
| 11> C     0.916410  -0.667518  -0.097726
| 12> C    -0.320523   0.087088   0.064176
| 13> N     0.884865  -1.960428  -0.291398
| 14> O    -1.411566  -0.700249  -0.006984
| 15> O    -0.360069   1.288195   0.242681
| 16> C    -2.677559  -0.049867   0.141975
| 17> N     0.845884  -3.079257  -0.459404
| 18> H     1.894938  -0.189320  -0.066503
| 19> H    -2.753811   0.432689   1.128218
| 20> H    -2.819493   0.711219  -0.640200
| 21> C    -3.727777  -1.140623   0.008959
| 22> H    -4.743486  -0.703300   0.111352
| 23> H    -3.582235  -1.905490   0.800905
| 24> H    -3.643216  -1.629003  -0.984890
| 25> *
| 26>
| 27>
| 28>
| 29>                          ****END OF INPUT****
 Total Charge           Charge          ....    0
 Multiplicity           Mult            ....    1
 Number of Electrons    NEL             ....   60
FINAL SINGLE POINT ENERGY      -415.715527842954
FINAL SINGLE POINT ENERGY      -415.716710324146
FINAL SINGLE POINT ENERGY      -415.716841188188
FINAL SINGLE POINT ENERGY      -415.716876787316
FINAL SINGLE POINT ENERGY      -415.716870988826
FINAL SINGLE POINT ENERGY      -415.716884772551
                    ***********************HURRAY********************

CARTESIAN COORDINATES (ANGSTROEM)
---------------------------------
  C      0.926646   -0.660147   -0.099255
  C     -0.319613    0.079470    0.062582
  N      0.923555   -1.953492   -0.290143
  O     -1.405232   -0.724947   -0.007819
  O     -0.361167    1.284733    0.239635
  C     -2.689082   -0.070366    0.141451
  N      0.911308   -3.079185   -0.456648
  H      1.887976   -0.166822   -0.068236
  H     -2.720007    0.424009    1.117764
  H     -2.781803    0.701440   -0.629309
  C     -3.760493   -1.136705    0.009692
  H     -4.749542   -0.677207    0.115016
  H     -3.650965   -1.901747    0.785723
  H     -3.709219   -1.624898   -0.969290

 Multiplicity           Mult            ....    1
 Number of Electrons    NEL             ....   60
 Basis Dimension        Dim             ....  124

ORBITAL ENERGIES
----------------

  NO   OCC          E(Eh)            E(eV)
   0   2.0000     -19.182966      -521.9950
   1   2.0000     -19.127118      -520.4753
   2   2.0000     -14.497039      -394.4845
   3   2.0000     -14.433239      -392.7484
   4   2.0000     -10.318313      -280.7756
   5   2.0000     -10.233990      -278.4810
   6   2.0000     -10.233198      -278.4595
   7   2.0000     -10.172177      -276.7990
   8   2.0000      -1.130824       -30.7713
   9   2.0000      -1.095535       -29.8110
  10   2.0000      -1.008945       -27.4548
  11   2.0000      -0.870919       -23.6989
  12   2.0000      -0.769419       -20.9369
  13   2.0000      -0.666161       -18.1272
  14   2.0000      -0.605298       -16.4710
  15   2.0000      -0.562281       -15.3004
  16   2.0000      -0.528033       -14.3685
  17   2.0000      -0.503602       -13.7037
  18   2.0000      -0.483125       -13.1465
  19   2.0000      -0.471221       -12.8226
  20   2.0000      -0.456129       -12.4119
  21   2.0000      -0.434577       -11.8254
  22   2.0000      -0.416464       -11.3326
  23   2.0000      -0.399073       -10.8593
  24   2.0000      -0.387345       -10.5402
  25   2.0000      -0.359529        -9.7833
  26   2.0000      -0.350366        -9.5339
  27   2.0000      -0.297560        -8.0970
  28   2.0000      -0.275775        -7.5042
  29   2.0000      -0.239771        -6.5245
  30   0.0000      -0.064393        -1.7522
  31   0.0000      -0.030228        -0.8225
  32   0.0000       0.086344         2.3496
  33   0.0000       0.107711         2.9310
  34   0.0000       0.118769         3.2319

MULLIKEN ATOMIC CHARGES
-----------------------
   0 C :   -0.198041
   1 C :    0.610482
   2 N :    0.174788
   3 O :   -0.484880
   4 O :   -0.483944
   5 C :   -0.027440
   6 N :   -0.164546
   7 H :    0.224898
   8 H :    0.163998
   9 H :    0.164284
  10 C :   -0.468766
  11 H :    0.160508
  12 H :    0.164324
  13 H :    0.164334
Sum of atomic charges:    0.0000000

LOEWDIN ATOMIC CHARGES
----------------------
   0 C :   -0.274872
   1 C :    0.133710
   2 N :    0.209681
   3 O :   -0.173180
   4 O :   -0.263360
   5 C :   -0.086449
   6 N :   -0.024836
   7 H :    0.183469
   8 H :    0.129604
   9 H :    0.129761
  10 C :   -0.372406
  11 H :    0.138499
  12 H :    0.135159
  13 H :    0.135221

  Mayer bond orders larger than 0.100000
B(  0-C ,  1-C ) :   1.0769 B(  0-C ,  2-N ) :   1.2845 B(  0-C ,  6-N ) :   0.2692
B(  0-C ,  7-H ) :   0.8910 B(  1-C ,  3-O ) :   1.0500 B(  1-C ,  4-O ) :   1.7985
B(  2-N ,  6-N ) :   2.3218 B(  3-O ,  5-C ) :   0.8409 B(  5-C ,  8-H ) :   0.9309
B(  5-C ,  9-H ) :   0.9305 B(  5-C , 10-C ) :   1.0282 B( 10-C , 11-H ) :   0.9425
B( 10-C , 12-H ) :   0.9465 B( 10-C , 13-H ) :   0.9465

FINAL SINGLE POINT ENERGY      -415.716885050240

DIPOLE MOMENT
-------------
                                X             Y             Z
Electronic contribution:     10.15687      -1.69360      -0.63957
Nuclear contribution   :    -10.36590       1.22312       0.57878
                        -----------------------------------------
Total Dipole Moment    :     -0.20903      -0.47049      -0.06079
                        -----------------------------------------
Magnitude (a.u.)       :      0.51841
Magnitude (Debye)      :      1.31769

VIBRATIONAL FREQUENCIES
-----------------------

Scaling factor for frequencies =  1.000000000  (already applied!)

   0:         0.00 cm**-1
   1:         0.00 cm**-1
   2:         0.00 cm**-1
   3:         0.00 cm**-1
   4:         0.00 cm**-1
   5:         0.00 cm**-1
   6:        55.08 cm**-1
   7:       101.26 cm**-1
   8:       102.33 cm**-1
   9:       156.44 cm**-1
  10:       224.87 cm**-1
  11:       263.74 cm**-1
  12:       358.33 cm**-1
  13:       413.65 cm**-1
  14:       502.79 cm**-1
  15:       538.47 cm**-1
  16:       566.53 cm**-1
  17:       706.43 cm**-1
  18:       737.36 cm**-1
  19:       819.21 cm**-1
  20:       872.11 cm**-1
  21:       981.38 cm**-1
  22:      1075.86 cm**-1
  23:      1142.98 cm**-1
  24:      1189.04 cm**-1
  25:      1195.11 cm**-1
  26:      1279.01 cm**-1
  27:      1304.93 cm**-1
  28:      1389.32 cm**-1
  29:      1423.54 cm**-1
  30:      1447.80 cm**-1
  31:      1508.32 cm**-1
  32:      1517.85 cm**-1
  33:      1542.03 cm**-1
  34:      1775.37 cm**-1
  35:      2229.15 cm**-1
  36:      3058.34 cm**-1
  37:      3074.85 cm**-1
  38:      3113.11 cm**-1
  39:      3129.82 cm**-1
  40:      3138.06 cm**-1
  41:      3274.67 cm**-1

IR SPECTRUM
-----------

 Mode   freq       eps      Int      T**2         TX        TY        TZ
       cm**-1   L/(mol*cm) km/mol    a.u.
----------------------------------------------------------------------------
  6:     55.08   0.000002    0.01  0.000010  (-0.000117  0.000301 -0.003184)
  7:    101.26   0.000038    0.19  0.000118  (-0.004686  0.007695  0.006045)
  8:    102.33   0.000137    0.69  0.000417  (-0.010524  0.017469  0.001010)
  9:    156.44   0.002080   10.51  0.004149  ( 0.002757 -0.009354  0.063672)
 10:    224.87   0.002005   10.13  0.002782  ( 0.050464  0.015347 -0.000055)
 11:    263.74   0.000360    1.82  0.000426  ( 0.000028 -0.003230  0.020377)
 12:    358.33   0.002730   13.80  0.002378  (-0.048227  0.006739  0.002579)
 13:    413.65   0.000556    2.81  0.000420  (-0.000780 -0.020212 -0.003217)
 14:    502.79   0.008642   43.67  0.005363  (-0.003101  0.010589 -0.072400)
 15:    538.47   0.000128    0.65  0.000074  (-0.003616  0.007621  0.001819)
 16:    566.53   0.000132    0.67  0.000073  (-0.000497  0.001414 -0.008393)
 17:    706.43   0.001667    8.42  0.000736  ( 0.027075  0.001610 -0.000796)
 18:    737.36   0.009975   50.41  0.004222  ( 0.002582 -0.009369  0.064244)
 19:    819.21   0.000053    0.27  0.000020  ( 0.000165 -0.000879  0.004398)
 20:    872.11   0.001098    5.55  0.000393  ( 0.005312 -0.018855 -0.003034)
 21:    981.38   0.002801   14.16  0.000891  ( 0.025528  0.015419  0.001162)
 22:   1075.86   0.031849  160.95  0.009238  ( 0.095347 -0.010831 -0.005448)
 23:   1142.98   0.002053   10.37  0.000560  ( 0.015709 -0.017352 -0.003553)
 24:   1189.04   0.001221    6.17  0.000320  ( 0.002205 -0.002867  0.017531)
 25:   1195.11   0.003346   16.91  0.000874  ( 0.028040  0.009349 -0.000298)
 26:   1279.01   0.121089  611.94  0.029545  (-0.167661  0.035789  0.012389)
 27:   1304.93   0.000196    0.99  0.000047  (-0.001790 -0.000644  0.006577)
 28:   1389.32   0.017869   90.30  0.004014  ( 0.047616 -0.040993 -0.008118)
 29:   1423.54   0.016016   80.94  0.003511  (-0.043807  0.039177  0.007556)
 30:   1447.80   0.007001   35.38  0.001509  ( 0.007013 -0.037700 -0.006215)
 31:   1508.32   0.001331    6.73  0.000275  (-0.000735  0.002611 -0.016373)
 32:   1517.85   0.000362    1.83  0.000075  (-0.008302  0.002161  0.000956)
 33:   1542.03   0.001899    9.60  0.000384  ( 0.001609 -0.019328 -0.002862)
 34:   1775.37   0.126696  640.27  0.022270  ( 0.004631 -0.147564 -0.021755)
 35:   2229.15   0.118345  598.07  0.016567  (-0.032617  0.122968  0.019552)
 36:   3058.34   0.003184   16.09  0.000325  ( 0.014054  0.011216  0.001269)
 37:   3074.85   0.004715   23.83  0.000479  (-0.008542  0.019733  0.004019)
 38:   3113.11   0.000852    4.30  0.000085  (-0.000238  0.001259 -0.009151)
 39:   3129.82   0.005809   29.36  0.000579  ( 0.015200 -0.018438 -0.002862)
 40:   3138.06   0.010628   53.71  0.001057  ( 0.000935 -0.004800  0.032140)
 41:   3274.67   0.003060   15.47  0.000292  ( 0.013118  0.010885  0.001049)

--------------------------
THERMOCHEMISTRY AT 298.15K
--------------------------

Temperature         ... 298.15 K
Pressure            ... 1.00 atm
Total Mass          ... 114.10 AMU

Throughout the following assumptions are being made:
  (1) The electronic state is orbitally nondegenerate
  (2) There are no thermally accessible electronically excited states
  (3) Hindered rotations indicated by low frequency modes are not
      treated as such but are treated as vibrations and this may
      cause some error
  (4) All equations used are the standard statistical mechanics
      equations for an ideal gas
  (5) All vibrations are strictly harmonic

freq.      55.08  E(vib)   ...       0.52
freq.     101.26  E(vib)   ...       0.46
freq.     102.33  E(vib)   ...       0.46
freq.     156.44  E(vib)   ...       0.40
freq.     224.87  E(vib)   ...       0.33
freq.     263.74  E(vib)   ...       0.29
freq.     358.33  E(vib)   ...       0.22
freq.     413.65  E(vib)   ...       0.19
freq.     502.79  E(vib)   ...       0.14
freq.     538.47  E(vib)   ...       0.12
freq.     566.53  E(vib)   ...       0.11
freq.     706.43  E(vib)   ...       0.07
freq.     737.36  E(vib)   ...       0.06
freq.     819.21  E(vib)   ...       0.05
freq.     872.11  E(vib)   ...       0.04
freq.     981.38  E(vib)   ...       0.02
freq.    1075.86  E(vib)   ...       0.02
freq.    1142.98  E(vib)   ...       0.01
freq.    1189.04  E(vib)   ...       0.01
freq.    1195.11  E(vib)   ...       0.01
freq.    1279.01  E(vib)   ...       0.01
freq.    1304.93  E(vib)   ...       0.01
freq.    1389.32  E(vib)   ...       0.00
freq.    1423.54  E(vib)   ...       0.00
freq.    1447.80  E(vib)   ...       0.00
freq.    1508.32  E(vib)   ...       0.00
freq.    1517.85  E(vib)   ...       0.00
freq.    1542.03  E(vib)   ...       0.00
freq.    1775.37  E(vib)   ...       0.00
freq.    2229.15  E(vib)   ...       0.00
freq.    3058.34  E(vib)   ...       0.00
freq.    3074.85  E(vib)   ...       0.00
freq.    3113.11  E(vib)   ...       0.00
freq.    3129.82  E(vib)   ...       0.00
freq.    3138.06  E(vib)   ...       0.00
freq.    3274.67  E(vib)   ...       0.00

------------
INNER ENERGY
------------

The inner energy is: U= E(el) + E(ZPE) + E(vib) + E(rot) + E(trans)
    E(el)   - is the total energy from the electronic structure calculation
              = E(kin-el) + E(nuc-el) + E(el-el) + E(nuc-nuc)
    E(ZPE)  - the the zero temperature vibrational energy from the frequency calculation
    E(vib)  - the the finite temperature correction to E(ZPE) due to population
              of excited vibrational states
    E(rot)  - is the rotational thermal energy
    E(trans)- is the translational thermal energy

Summary of contributions to the inner energy U:
Electronic energy                ...   -415.71688505 Eh
Zero point energy                ...      0.10527221 Eh      66.06 kcal/mol
Thermal vibrational correction   ...      0.00567966 Eh       3.56 kcal/mol
Thermal rotational correction    ...      0.00141627 Eh       0.89 kcal/mol
Thermal translational correction ...      0.00141627 Eh       0.89 kcal/mol
-----------------------------------------------------------------------
Total thermal energy                   -415.60310064 Eh

Summary of corrections to the electronic energy:
(perhaps to be used in another calculation)
Total thermal correction                  0.00851220 Eh       5.34 kcal/mol
Non-thermal (ZPE) correction              0.10527221 Eh      66.06 kcal/mol
-----------------------------------------------------------------------
Total correction                          0.11378441 Eh      71.40 kcal/mol

--------
ENTHALPY
--------

The enthalpy is H = U + kB*T
                kB is Boltzmann's constant
Total free energy                 ...   -415.60310064 Eh
Thermal Enthalpy correction       ...      0.00094421 Eh       0.59 kcal/mol
-----------------------------------------------------------------------
Total Enthalpy                    ...   -415.60215643 Eh

Note: Only C1 symmetry has been detected, increase convergence thresholds
      if your molecule has a higher symmetry. Symmetry factor of 1.0 is
      used for the rotational entropy correction.

Note: Rotational entropy computed according to Herzberg
Infrared and Raman Spectra, Chapter V,1, Van Nostrand Reinhold, 1945
Point Group:  C1, Symmetry Number:   1
Rotational constants in cm-1:     0.102039     0.047321     0.032727

Vibrational entropy computed according to the QRRHO of S. Grimme
Chem.Eur.J. 2012 18 9955

-------
ENTROPY
-------

The entropy contributions are T*S = T*(S(el)+S(vib)+S(rot)+S(trans))
     S(el)   - electronic entropy
     S(vib)  - vibrational entropy
     S(rot)  - rotational entropy
     S(trans)- translational entropy
The entropies will be listed as multiplied by the temperature to get
units of energy

Electronic entropy                ...      0.00000000 Eh      0.00 kcal/mol
Vibrational entropy               ...      0.01002585 Eh      6.29 kcal/mol
Rotational entropy                ...      0.01364291 Eh      8.56 kcal/mol
Translational entropy             ...      0.01905811 Eh     11.96 kcal/mol
-----------------------------------------------------------------------
Final entropy term                ...      0.04272686 Eh     26.81 kcal/mol

In case the symmetry of your molecule has not been determined correctly
or in case you have a reason to use a different symmetry number we print
out the resulting rotational entropy values for sn=1,12 :
 --------------------------------------------------------
|  sn= 1 | S(rot)=       0.01364291 Eh      8.56 kcal/mol|
|  sn= 2 | S(rot)=       0.01298845 Eh      8.15 kcal/mol|
|  sn= 3 | S(rot)=       0.01260562 Eh      7.91 kcal/mol|
|  sn= 4 | S(rot)=       0.01233399 Eh      7.74 kcal/mol|
|  sn= 5 | S(rot)=       0.01212331 Eh      7.61 kcal/mol|
|  sn= 6 | S(rot)=       0.01195116 Eh      7.50 kcal/mol|
|  sn= 7 | S(rot)=       0.01180561 Eh      7.41 kcal/mol|
|  sn= 8 | S(rot)=       0.01167954 Eh      7.33 kcal/mol|
|  sn= 9 | S(rot)=       0.01156833 Eh      7.26 kcal/mol|
|  sn=10 | S(rot)=       0.01146885 Eh      7.20 kcal/mol|
|  sn=11 | S(rot)=       0.01137886 Eh      7.14 kcal/mol|
|  sn=12 | S(rot)=       0.01129670 Eh      7.09 kcal/mol|
 --------------------------------------------------------

-------------------
GIBBS FREE ENERGY
-------------------

The Gibbs free energy is G = H - T*S

Total enthalpy                    ...   -415.60215643 Eh
Total entropy correction          ...     -0.04272686 Eh    -26.81 kcal/mol
-----------------------------------------------------------------------
Final Gibbs free energy         ...   -415.64488329 Eh

For completeness - the Gibbs free energy minus the electronic energy

                             ****ORCA TERMINATED NORMALLY****
TOTAL RUN TIME: 0 days 0 hours 8 minutes 55 seconds 510 msec
